<?xml version="1.0"?>
<VTKFile type="UnstructuredGrid" version="1.0" byte_order="LittleEndian" header_type="UInt64">
  <UnstructuredGrid>
    <Piece NumberOfPoints="246" NumberOfCells="142">
      <PointData>
        <DataArray type="UInt64" Name="bulk_node_ids" format="ascii" RangeMin="0" RangeMax="7913">
          0 1 2 3 6 7
          9 10 62 63 64 65
          66 67 68 69 75 76
          77 81 82 83 87 88
          90 91 117 118 119 120
          121 122 124 125 170 171
          224 225 226 227 228 229
          230 231 232 233 234 235
          236 250 251 252 253 254
          255 256 257 258 259 260
          261 262 263 264 265 266
          267 268 269 270 271 272
          273 274 275 276 277 278
          279 280 281 282 283 284
          285 286 287 288 289 290
          291 292 293 294 295 2636
          2637 2640 2641 2673 2674 2675
          2676 2677 2678 2679 2680 2686
          2687 2688 2692 2693 2695 2696
          2708 2709 2710 2711 2712 2713
          2746 2747 2800 2801 2802 2803
          2804 2805 2806 2807 2808 2809
          2810 2811 2812 2826 2827 2828
          2829 2830 2831 2832 2833 2834
          2835 2836 2837 2838 2839 2840
          2841 2842 2843 2844 2845 2846
          2847 2848 2849 2850 2851 2852
          2853 2854 2855 2856 2857 2858
          2859 2860 2861 2862 2863 2864
          2865 2866 2867 2868 2869 2870
          2871 5230 5231 5284 5285 5286
          5287 5288 5289 5290 5291 5292
          5293 5294 5295 5296 5310 5311
          5312 5313 5314 5315 5316 5317
          5318 5319 5320 5321 5322 5323
          5324 5325 5326 5327 5328 5329
          5330 5331 5332 5333 6970 6971
          7024 7025 7026 7027 7028 7029
          7030 7031 7032 7033 7034 7035
          7036 7050 7051 7052 7871 7872
          7908 7909 7910 7911 7912 7913
        </DataArray>
      </PointData>
      <CellData>
        <DataArray type="Int32" Name="MaterialIDs" format="ascii" RangeMin="0" RangeMax="3">
          0 0 0 0 0 0
          0 0 0 0 0 0
          0 0 0 0 0 0
          0 0 0 0 0 0
          0 0 0 0 0 0
          0 0 0 0 0 0
          0 0 0 0 0 0
          0 0 0 0 0 0
          0 0 0 0 0 0
          0 0 0 0 0 0
          0 0 0 0 0 0
          0 0 0 0 0 0
          0 0 0 0 0 0
          1 1 1 1 1 1
          1 1 1 1 1 1
          1 1 1 1 1 1
          1 1 1 1 1 1
          1 1 1 1 1 1
          1 1 1 1 1 1
          1 1 1 1 1 2
          2 2 2 2 2 2
          2 2 2 2 2 2
          2 2 2 3 3 3
          3 3 3 3
        </DataArray>
        <DataArray type="UInt64" Name="bulk_element_ids" format="ascii" RangeMin="0" RangeMax="11287">
          0 1 7 17 26 28
          32 39 43 52 53 70
          87 91 103 113 119 122
          127 131 139 188 331 497
          503 551 560 564 568 569
          575 579 717 739 896 904
          905 911 926 951 954 957
          972 977 997 1417 1698 2010
          2588 2627 2745 2800 2828 2963
          3099 3196 3351 3443 3512 3520
          3724 3737 3852 3853 4048 4081
          4246 4248 4285 4574 4648 4893
          4902 4911 4940 4951 4957 4969
          4972 4983 4993 5015 5019 5022
          5025 5033 5156 5236 5238 5261
          5264 5361 5460 5461 5489 5492
          5508 5520 5883 6359 6868 6902
          6986 7156 7275 7573 7636 7807
          7819 7920 8083 8263 8265 8297
          8582 8759 8765 8770 8795 8813
          8817 8829 8835 8906 8918 8919
          9871 9886 10180 10227 10279 10428
          10542 10766 10769 10798 10822 10825
          10826 11175 11286 11287
        </DataArray>
        <DataArray type="UInt64" Name="bulk_face_ids" format="ascii" RangeMin="0" RangeMax="4">
          1 3 2 1 1 3
          0 1 3 1 1 3
          1 3 2 1 1 2
          0 1 1 1 1 3
          1 3 3 2 1 1
          0 0 1 3 3 1
          3 3 1 3 1 3
          2 3 2 1 1 1
          3 1 1 1 0 3
          3 1 1 3 1 3
          1 1 3 0 3 1
          1 3 3 3 1 3
          3 1 1 1 1 2
          1 1 0 1 2 2
          1 1 0 2 1 3
          1 1 1 3 2 3
          0 4 1 2 3 1
          1 3 3 3 1 4
          1 3 3 1 3 3
          1 3 3 1 1 1
          1 4 2 1 3 1
          3 1 3 1 1 3
          3 3 1 1 1 3
          1 1 4 4
        </DataArray>
      </CellData>
      <Points>
        <DataArray type="Float64" Name="Points" NumberOfComponents="3" format="ascii" RangeMin="6409753.492076584" RangeMax="6420990.519136762">
          3481154.7937 5382481.4669 510.50176336 3481038.1275 5382656.4678 514.56139367
          3480979.796 5382734.2442 514.57495575 3480960.3511 5382889.797 517.05139342
          3481290.9048 5383200.9058 518.43501632 3481213.1284 5383298.1271 521.19917841
          3480979.796 5383453.6831 525.15451442 3480960.3511 5383706.4572 527.68555407
          3484713.1014 5384659.2284 480.7421121 3484674.2117 5384950.8923 481.69807316
          3484635.325 5385203.6696 483.65887356 3484557.5455 5385320.3357 483.62097553
          3484440.8824 5385475.8886 487.45614274 3484382.5477 5385553.665 488.42608034
          3484421.4375 5385884.2187 489.50349046 3484382.5477 5386292.5488 491.41740988
          3485101.9866 5386448.1047 482.41809129 3484926.9889 5386584.2158 486.54713027
          3484829.7676 5386681.4371 489.25611993 3484538.1037 5386661.9922 493.62211139
          3484363.1029 5386759.2135 495.71507037 3484149.2154 5386778.6584 499.89431581
          3483993.6626 5387361.9862 504.02947852 3483838.1066 5387381.431 506.65992792
          3483682.5538 5387770.3163 510.77641049 3483546.4427 5387886.9824 514.26393417
          3485296.4292 5389792.5218 500.45157772 3485238.0977 5389909.188 502.71114695
          3485354.7639 5390123.0755 500.79050776 3485238.0977 5390181.4101 504.71263653
          3485160.3213 5390181.4101 504.72609185 3484965.8756 5390220.2967 507.91281773
          3484576.9904 5390414.7394 514.83855231 3484401.9926 5390589.7402 518.2453515
          3494785.2456 5386506.4362 274.63395154 3494649.1376 5386700.8788 278.57093526
          3496029.6807 5375306.5231 258.52388248 3495874.1278 5375364.8547 260.68219182
          3495718.5719 5375520.4106 264.60750433 3495660.2404 5375812.0745 265.45271988
          3495465.7978 5375831.5194 269.28281656 3495251.9103 5375850.9612 272.84771213
          3495018.5779 5375948.1825 280.4801535 3494804.6904 5376045.4069 284.49471001
          3494629.6927 5376162.07 288.95754216 3494435.2501 5376220.4046 293.10998076
          3494240.8075 5376414.8472 298.77748744 3494065.8067 5376512.0685 302.17798867
          3493890.809 5376531.5134 306.7660397 3491343.6072 5375598.187 333.16777591
          3491168.6063 5375773.1848 334.4683858 3491051.9433 5375909.2958 335.1835674
          3490818.6109 5376006.5171 336.9460468 3490663.0549 5376142.6282 337.48904979
          3490526.947 5376278.7362 338.47513831 3490410.2808 5376375.9574 338.90813865
          3490235.28 5376473.1788 339.95391514 3490040.8374 5376687.0662 341.0751049
          3489865.8397 5376920.3986 341.60967478 3489710.2868 5377153.731 342.84118949
          3489574.1758 5377328.7287 343.47938054 3489535.286 5377542.6162 344.12388733
          3489418.6198 5377834.2801 345.21046657 3489360.2883 5378009.2809 345.32946951
          3489340.8434 5378184.2786 346.82580733 3489165.8457 5378398.1661 348.03863519
          3489068.6244 5378495.3874 349.5034305 3488776.9605 5378631.4954 353.81374784
          3488524.1832 5378748.1615 358.96916668 3488349.1855 5378825.9411 362.09597255
          3488057.5216 5378942.6041 366.91668598 3487726.968 5379078.7152 376.07300843
          3487454.7458 5379234.2712 382.40303711 3487279.7481 5379253.7129 388.64941657
          3487104.7504 5379389.824 394.99719902 3486988.0842 5379467.6004 399.20534741
          3486813.0865 5379506.4902 404.58884668 3486618.6408 5379603.7115 411.4365137
          3486404.7564 5379700.9328 417.6990249 3486190.8689 5379778.7092 423.47864983
          3485860.3153 5380012.0416 431.98386812 3485568.6513 5380148.1526 439.05190973
          3485238.0977 5380303.7055 445.05085085 3484888.0991 5380459.2614 450.35993133
          3484421.4375 5380614.8142 457.13866613 3484013.1074 5380789.8151 464.32792499
          3483604.7774 5380906.4781 472.04436196 3483215.889 5381003.7025 478.51066267
          3482846.4487 5381139.8105 483.16761874 3482477.0084 5381198.1452 487.08257039
          3482165.8996 5381470.3642 495.2137522 3481777.0113 5381742.5832 502.63899847
          3481563.1238 5381937.0258 504.56369438 3481213.1284 5382209.2479 507.78198069
          3481135.352 5382345.359 510.59732991 3481154.7937 5382481.4669 519.49229321
          3480960.3511 5382889.797 533.79331219 3481290.9048 5383200.9058 520.52667857
          3480960.3511 5383706.4572 548.25097465 3484713.1014 5384659.2284 510.95789677
          3484674.2117 5384950.8923 526.53943669 3484635.325 5385203.6696 504.21150581
          3484557.5455 5385320.3357 502.16423244 3484440.8824 5385475.8886 493.23627781
          3484382.5477 5385553.665 503.12844302 3484421.4375 5385884.2187 499.05413973
          3484382.5477 5386292.5488 513.27794447 3485101.9866 5386448.1047 515.63791239
          3484926.9889 5386584.2158 503.20337135 3484829.7676 5386681.4371 507.58278994
          3484538.1037 5386661.9922 496.66688698 3484363.1029 5386759.2135 514.69314362
          3483993.6626 5387361.9862 514.07342814 3483682.5538 5387770.3163 513.66076498
          3485296.4292 5389792.5218 532.13317025 3485238.0977 5389909.188 525.96769376
          3485354.7639 5390123.0755 530.80879478 3485238.0977 5390181.4101 513.00568406
          3485160.3213 5390181.4101 512.8793203 3484401.9926 5390589.7402 522.53123609
          3494785.2456 5386506.4362 364.63395154 3494649.1376 5386700.8788 368.57093526
          3496029.6807 5375306.5231 348.52388248 3495874.1278 5375364.8547 350.68219182
          3495718.5719 5375520.4106 354.60750433 3495660.2404 5375812.0745 355.45271988
          3495465.7978 5375831.5194 359.28281656 3495251.9103 5375850.9612 362.84771213
          3495018.5779 5375948.1825 370.4801535 3494804.6904 5376045.4069 374.49471001
          3494629.6927 5376162.07 378.95754216 3494435.2501 5376220.4046 383.10998076
          3494240.8075 5376414.8472 388.77748744 3494065.8067 5376512.0685 392.17798867
          3493890.809 5376531.5134 396.7660397 3491343.6072 5375598.187 423.16777591
          3491168.6063 5375773.1848 424.4683858 3491051.9433 5375909.2958 425.1835674
          3490818.6109 5376006.5171 426.9460468 3490663.0549 5376142.6282 427.48904979
          3490526.947 5376278.7362 428.47513831 3490410.2808 5376375.9574 427.87153547
          3490235.28 5376473.1788 429.95391514 3490040.8374 5376687.0662 426.59857973
          3489865.8397 5376920.3986 422.26867722 3489710.2868 5377153.731 430.50788605
          3489574.1758 5377328.7287 433.47938054 3489535.286 5377542.6162 434.12388733
          3489418.6198 5377834.2801 435.21046657 3489360.2883 5378009.2809 435.32946951
          3489340.8434 5378184.2786 436.82580733 3489165.8457 5378398.1661 438.03863519
          3489068.6244 5378495.3874 439.5034305 3488776.9605 5378631.4954 443.81374784
          3488524.1832 5378748.1615 448.96916668 3488349.1855 5378825.9411 452.09597255
          3488057.5216 5378942.6041 456.91668598 3487726.968 5379078.7152 465.52690417
          3487454.7458 5379234.2712 471.47345707 3487279.7481 5379253.7129 476.83378799
          3487104.7504 5379389.824 480.47022331 3486988.0842 5379467.6004 484.87701371
          3486813.0865 5379506.4902 490.96975371 3486618.6408 5379603.7115 496.80566766
          3486404.7564 5379700.9328 505.70403866 3486190.8689 5379778.7092 512.77390016
          3485860.3153 5380012.0416 521.98386812 3485568.6513 5380148.1526 529.05190973
          3485238.0977 5380303.7055 535.05085085 3484888.0991 5380459.2614 536.62996558
          3484421.4375 5380614.8142 545.51794976 3484013.1074 5380789.8151 554.32792499
          3483604.7774 5380906.4781 562.04436196 3483215.889 5381003.7025 568.51066267
          3482846.4487 5381139.8105 573.16761874 3482477.0084 5381198.1452 577.08257039
          3482165.8996 5381470.3642 583.95096919 3481777.0113 5381742.5832 590.34681406
          3481563.1238 5381937.0258 594.56369438 3481213.1284 5382209.2479 559.12312943
          3481135.352 5382345.359 522.53484693 3494785.2456 5386506.4362 384.30189561
          3494649.1376 5386700.8788 387.36657145 3496029.6807 5375306.5231 367.05703351
          3495874.1278 5375364.8547 369.26463511 3495718.5719 5375520.4106 373.71063049
          3495660.2404 5375812.0745 374.58295595 3495465.7978 5375831.5194 379.17596991
          3495251.9103 5375850.9612 382.94005776 3495018.5779 5375948.1825 390.00803736
          3494804.6904 5376045.4069 393.99471001 3494629.6927 5376162.07 398.45754216
          3494435.2501 5376220.4046 402.60998076 3494240.8075 5376414.8472 408.24993862
          3494065.8067 5376512.0685 411.6158141 3493890.809 5376531.5134 416.14384259
          3491343.6072 5375598.187 442.42062045 3491168.6063 5375773.1848 443.66330792
          3491051.9433 5375909.2958 444.36653953 3490818.6109 5376006.5171 436.21471346
          3490663.0549 5376142.6282 432.23491667 3489574.1758 5377328.7287 438.4090061
          3489535.286 5377542.6162 449.72917942 3489418.6198 5377834.2801 450.86895365
          3489360.2883 5378009.2809 452.14843143 3489340.8434 5378184.2786 451.36356559
          3489165.8457 5378398.1661 452.16368021 3489068.6244 5378495.3874 454.0660661
          3488776.9605 5378631.4954 459.16559358 3488524.1832 5378748.1615 463.29328898
          3488349.1855 5378825.9411 462.55376511 3488057.5216 5378942.6041 462.28831852
          3485568.6513 5380148.1526 530.88335275 3485238.0977 5380303.7055 538.03505753
          3484013.1074 5380789.8151 566.67477604 3483604.7774 5380906.4781 575.76790071
          3483215.889 5381003.7025 580.52251656 3482846.4487 5381139.8105 588.30243872
          3482477.0084 5381198.1452 587.31986935 3481563.1238 5381937.0258 598.09805813
          3494785.2456 5386506.4362 457.01343445 3494649.1376 5386700.8788 460.20998342
          3496029.6807 5375306.5231 422.07660864 3495874.1278 5375364.8547 426.46743061
          3495718.5719 5375520.4106 435.11918364 3495660.2404 5375812.0745 437.38680386
          3495465.7978 5375831.5194 446.6711297 3495251.9103 5375850.9612 455.37795248
          3495018.5779 5375948.1825 450.09525288 3494804.6904 5376045.4069 437.23724332
          3494629.6927 5376162.07 417.51941458 3494435.2501 5376220.4046 418.29937135
          3494240.8075 5376414.8472 413.57033746 3494065.8067 5376512.0685 414.62599608
          3493890.809 5376531.5134 420.37621497 3491343.6072 5375598.187 460.84400728
          3491168.6063 5375773.1848 453.94944514 3491051.9433 5375909.2958 445.78765627
          3494785.2456 5386506.4362 536.54443037 3494649.1376 5386700.8788 542.44914177
          3496029.6807 5375306.5231 436.7752866 3495874.1278 5375364.8547 455.71683748
          3495718.5719 5375520.4106 465.75735897 3495660.2404 5375812.0745 456.00309488
          3495465.7978 5375831.5194 453.83474106 3495251.9103 5375850.9612 457.88024707
          <InformationKey name="L2_NORM_RANGE" location="vtkDataArray" length="2">
            <Value index="0">
              6409753.4921
            </Value>
            <Value index="1">
              6420990.5191
            </Value>
          </InformationKey>
        </DataArray>
      </Points>
      <Cells>
        <DataArray type="Int64" Name="connectivity" format="ascii" RangeMin="0" RangeMax="245">
          35 34 120 121 20 19
          110 111 18 17 108 109
          91 90 176 177 52 51
          137 138 57 56 142 143
          20 111 21 55 54 140
          141 54 53 139 140 56
          55 141 142 15 14 105
          106 11 10 101 102 51
          50 136 137 60 59 145
          146 50 49 135 136 58
          57 143 144 61 60 146
          147 96 3 2 22 112
          23 80 79 165 166 53
          52 138 139 77 76 162
          163 90 89 175 176 81
          80 166 167 37 36 122
          123 17 16 107 108 38
          37 123 124 119 33 32
          39 38 124 125 59 58
          144 145 0 95 1 24
          113 25 83 82 168 169
          73 72 158 159 74 73
          159 160 63 62 148 149
          64 63 149 150 76 75
          161 162 78 77 163 164
          85 84 170 171 79 78
          164 165 82 81 167 168
          98 7 6 71 70 156
          157 87 86 172 173 68
          67 153 154 27 26 114
          115 92 91 177 178 47
          46 132 133 45 44 130
          131 62 61 147 148 10
          9 100 101 30 118 31
          88 87 173 174 65 64
          150 151 84 83 169 170
          72 71 157 158 44 43
          129 130 46 45 131 132
          9 8 99 100 86 85
          171 172 42 41 127 128
          70 69 155 156 4 97
          5 48 47 133 134 75
          74 160 161 69 68 154
          155 89 88 174 175 43
          42 128 129 29 28 116
          117 66 65 151 152 67
          66 152 153 41 40 126
          127 40 39 125 126 93
          92 178 179 13 12 103
          104 12 11 102 103 94
          93 179 180 121 120 181
          182 138 137 198 199 139
          200 140 137 136 197 198
          201 146 145 136 135 196
          197 147 146 201 202 139
          138 199 200 175 218 176
          212 167 166 123 122 183
          184 124 123 184 185 125
          124 185 186 169 168 213
          149 148 203 204 150 149
          204 205 214 171 170 168
          167 212 213 156 211 157
          173 172 215 216 154 153
          208 209 219 178 177 133
          132 193 194 131 130 191
          192 148 147 202 203 174
          173 216 217 151 150 205
          206 130 129 190 191 132
          131 192 193 172 171 214
          215 128 127 188 189 156
          155 210 211 134 133 194
          195 155 154 209 210 175
          174 217 218 129 128 189
          190 152 151 206 207 153
          152 207 208 127 126 187
          188 126 125 186 187 179
          178 219 182 181 220 221
          199 198 237 198 197 236
          237 197 196 235 236 184
          183 222 223 185 184 223
          224 186 185 224 225 194
          193 232 233 192 191 230
          231 191 190 229 230 193
          192 231 232 189 188 227
          228 195 194 233 234 190
          189 228 229 188 187 226
          227 187 186 225 226 221
          220 238 239 223 222 240
          241 224 223 241 242 225
          224 242 243 228 227 245
          227 226 244 245 226 225
          243 244
        </DataArray>
        <DataArray type="Int64" Name="offsets" format="ascii" RangeMin="4" RangeMax="548">
          4 8 12 16 20 24
          27 31 35 39 43 47
          51 55 59 63 67 70
          73 77 81 85 89 93
          97 101 105 108 112 116
          119 122 126 130 134 138
          142 146 150 154 158 162
          165 169 173 177 181 185
          189 193 197 201 204 208
          212 216 220 224 228 232
          236 240 244 247 251 255
          259 263 267 271 275 279
          283 287 291 295 299 303
          307 311 314 318 321 325
          329 333 336 339 343 347
          351 354 358 362 365 369
          372 376 380 383 387 391
          395 399 403 407 411 415
          419 423 427 431 435 439
          443 447 451 455 458 462
          465 469 473 477 481 485
          489 493 497 501 505 509
          513 517 521 525 529 533
          537 540 544 548
        </DataArray>
        <DataArray type="UInt8" Name="types" format="ascii" RangeMin="5" RangeMax="9">
          9 9 9 9 9 9
          5 9 9 9 9 9
          9 9 9 9 9 5
          5 9 9 9 9 9
          9 9 9 5 9 9
          5 5 9 9 9 9
          9 9 9 9 9 9
          5 9 9 9 9 9
          9 9 9 9 5 9
          9 9 9 9 9 9
          9 9 9 5 9 9
          9 9 9 9 9 9
          9 9 9 9 9 9
          9 9 5 9 5 9
          9 9 5 5 9 9
          9 5 9 9 5 9
          5 9 9 5 9 9
          9 9 9 9 9 9
          9 9 9 9 9 9
          9 9 9 9 5 9
          5 9 9 9 9 9
          9 9 9 9 9 9
          9 9 9 9 9 9
          9 5 9 9
        </DataArray>
      </Cells>
    </Piece>
  </UnstructuredGrid>
</VTKFile>
