<?xml version="1.0"?>
<VTKFile type="UnstructuredGrid" version="1.0" byte_order="LittleEndian" header_type="UInt64">
  <UnstructuredGrid>
    <Piece NumberOfPoints="138" NumberOfCells="37">
      <PointData>
        <DataArray type="UInt64" Name="bulk_node_ids" format="ascii" RangeMin="522" RangeMax="431944">
          522 523 524 655 656 657
          789 790 2519 2520 2652 2653
          6804 6805 6937 6938 19065 19145
          19864 19998 20141 20142 20398 20931
          20932 20937 20938 21066 30109 30110
          30111 30244 30245 30515 30516 30583
          30584 30652 30653 30717 30718 30849
          30850 30852 31249 31250 31582 31715
          31848 31981 32643 32772 32776 32777
          32905 33043 33176 384369 384502 384635
          384768 384901 385034 385167 385300 396738
          396871 397004 397137 397270 397403 397536
          397669 408431 408642 408789 408831 409000
          409317 409452 409861 410178 411073 412408
          412434 412899 413110 413191 413297 413415
          414232 415061 415522 415735 415752 416510
          417529 417756 418080 419461 420028 420187
          420405 420992 421271 421288 421516 421663
          421678 421729 422420 422592 422882 423124
          423762 424470 424557 424566 425056 425523
          425538 425633 425846 425861 426096 426356
          426800 427217 427480 427966 428870 429142
          430312 430351 430646 431377 431427 431944
        </DataArray>
      </PointData>
      <CellData>
        <DataArray type="Float64" Name="CELL_VOLUME_CORRECTION_FACTOR" format="ascii" RangeMin="-99999" RangeMax="0.756454586982727">
          -99999 -99999 -99999 -99999 -99999 0.000009577122000337113
          0.0000665422558085993 0.11140190809965134 0.011236152611672878 0.003804184030741453 0.00027088806382380426 0.6402705907821655
          0.15125782787799835 0.2005113959312439 -99999 0.5540855526924133 -99999 -99999
          0.1319313645362854 -99999 0.18117105960845947 -99999 -99999 -99999
          -99999 0.02222413197159767 0.756454586982727 0.010523810982704163 0.048083383589982986 -99999
          -99999 -99999 -99999 -99999 -99999 -99999
          -99999
        </DataArray>
        <DataArray type="Float64" Name="GEOLOGIC_K" format="ascii" RangeMin="-99999" RangeMax="1">
          -99999 -99999 -99999 -99999 -99999 1
          1 1 1 1 1 1
          1 1 -99999 1 -99999 -99999
          1 -99999 1 -99999 -99999 -99999
          -99999 1 1 1 1 -99999
          -99999 -99999 -99999 -99999 -99999 -99999
          -99999
        </DataArray>
        <DataArray type="Float64" Name="RegionFlags" format="ascii" RangeMin="-1" RangeMax="120">
          -1 -1 -1 -1 -1 120
          120 120 120 120 120 120
          120 120 119 120 119 118
          120 119 120 119 119 119
          119 120 120 120 120 119
          119 119 119 -1 -1 -1
          -1
        </DataArray>
        <DataArray type="Float64" Name="VISIBLE_TETRA_RECORD_ID" format="ascii" RangeMin="-99999" RangeMax="102421">
          -99999 -99999 -99999 -99999 -99999 70501
          48246 102020 38583 36938 63959 12714
          36937 13281 -99999 51062 -99999 -99999
          16304 -99999 70524 -99999 -99999 -99999
          -99999 74172 76615 75996 102421 -99999
          -99999 -99999 -99999 -99999 -99999 -99999
          -99999
        </DataArray>
        <DataArray type="UInt64" Name="bulk_element_ids" format="ascii" RangeMin="519" RangeMax="378179">
          519 520 652 2501 6753 17475
          17476 17609 17878 17946 18014 18079
          18210 18213 18394 18607 18657 18737
          18936 19054 19200 19450 19583 19858
          19980 19989 20117 20122 20386 20509
          20642 20643 20648 377387 377651 377915
          378179
        </DataArray>
        <DataArray type="UInt64" Name="bulk_face_ids" format="ascii" RangeMin="0" RangeMax="2">
          0 0 0 0 0 1
          1 1 1 1 1 1
          1 1 2 1 2 2
          2 2 2 2 2 1
          2 2 2 1 2 2
          1 2 1 2 2 2
          2
        </DataArray>
        <DataArray type="Float64" Name="fault_blocks" format="ascii" RangeMin="-99999" RangeMax="1">
          -99999 -99999 -99999 -99999 -99999 1
          1 1 1 1 1 1
          1 1 -99999 1 -99999 -99999
          1 -99999 1 -99999 -99999 -99999
          -99999 1 1 1 1 -99999
          -99999 -99999 -99999 -99999 -99999 -99999
          -99999
        </DataArray>
      </CellData>
      <Points>
        <DataArray type="Float64" Name="Points" NumberOfComponents="3" format="ascii" RangeMin="5954525.864816818" RangeMax="5961389.309999941">
          567660.4375 5934281.5 219.0192108154297 567760.4375 5934281.5 278.9535827636719
          567860.4375 5934281.5 328.1183166503906 567660.4375 5934181.5 77.55680847167969
          567760.4375 5934181.5 201.81048583984375 567860.4375 5934181.5 299.024169921875
          567760.4375 5934081.5 88.12377166748047 567860.4375 5934081.5 268.82745361328125
          567860.4375 5932781.5 137.41525268554688 567960.4375 5932781.5 172.3476104736328
          567860.4375 5932681.5 68.21493530273438 567960.4375 5932681.5 160.00631713867188
          557460.4375 5929481.5 213.88600158691406 557560.4375 5929481.5 278.0392150878906
          557460.4375 5929381.5 153.079833984375 557560.4375 5929381.5 236.34988403320312
          559960.4375 5929581.5 6.787844657897949 567960.4375 5929581.5 -35.29021453857422
          560060.4375 5928981.5 7.345864772796631 560160.4375 5928881.5 7.1107354164123535
          561160.4375 5928781.5 13.370707511901855 561260.4375 5928781.5 14.15955924987793
          560260.4375 5928581.5 7.782089710235596 560360.4375 5928181.5 5.222228527069092
          560460.4375 5928181.5 6.759416103363037 560960.4375 5928181.5 10.716704368591309
          561060.4375 5928181.5 11.419291496276855 560560.4375 5928081.5 6.327854633331299
          560460.4375 5930581.5 17.98064422607422 560560.4375 5930581.5 17.26272964477539
          560660.4375 5930581.5 15.87152099609375 560660.4375 5930481.5 19.114206314086914
          560760.4375 5930481.5 18.17884063720703 561160.4375 5930281.5 22.944927215576172
          561260.4375 5930281.5 22.18539810180664 567960.4375 5930281.5 -26.779869079589844
          568060.4375 5930281.5 -27.90478515625 561560.4375 5930181.5 24.55336570739746
          561660.4375 5930181.5 23.399499893188477 568060.4375 5930181.5 -27.538272857666016
          568160.4375 5930181.5 -28.862110137939453 567960.4375 5930081.5 -26.242773056030273
          568060.4375 5930081.5 -27.257883071899414 568260.4375 5930081.5 -30.51536750793457
          568060.4375 5929781.5 -25.498981475830078 568160.4375 5929781.5 -27.072595596313477
          561460.4375 5929481.5 30.042827606201172 561460.4375 5929381.5 29.348953247070312
          561460.4375 5929281.5 29.6541690826416 561460.4375 5929181.5 28.496795654296875
          561160.4375 5928681.5 30.112483978271484 560760.4375 5928581.5 28.781936645507812
          561160.4375 5928581.5 28.81268310546875 561260.4375 5928581.5 27.260360717773438
          560760.4375 5928481.5 26.8980770111084 561260.4375 5928381.5 29.689115524291992
          561260.4375 5928281.5 29.05080795288086 568060.4375 5933981.5 355.6607971191406
          568160.4375 5933881.5 352.4300231933594 568160.4375 5933781.5 351.72406005859375
          568260.4375 5933681.5 347.8722229003906 568260.4375 5933581.5 347.2304382324219
          568360.4375 5933481.5 343.8690490722656 568360.4375 5933381.5 343.84161376953125
          568560.4375 5933281.5 337.579833984375 568060.4375 5933981.5 369.1640930175781
          568160.4375 5933881.5 365.7968444824219 568160.4375 5933781.5 365.0899658203125
          568260.4375 5933681.5 361.28167724609375 568260.4375 5933581.5 360.63677978515625
          568360.4375 5933481.5 357.1650390625 568360.4375 5933381.5 357.1352844238281
          568560.4375 5933281.5 350.89276123046875 560360.416229248 5928281.707519531 5.341078758239746
          560060.416229248 5929381.707519531 7.296254634857178 560260.416229248 5928581.707519531 25.5935115814209
          568060.416015625 5930281.707519531 -41.05812072753906 559960.416229248 5929681.707550049 25.14918327331543
          561660.4162597656 5930181.707504272 5.7919816970825195 567960.416015625 5930281.707550049 -40.12517547607422
          560060.4162330627 5929881.707557678 5.663318634033203 561260.4162597656 5928581.707519531 10.881421089172363
          561160.4162597656 5928581.707519531 12.055754661560059 568160.416015625 5930181.707519531 -42.01922607421875
          567960.416015625 5929681.707489014 -36.434303283691406 560060.4162330627 5929281.707519531 7.283718585968018
          568060.416015625 5930181.70753479 -40.69160842895508 561160.4162597656 5928781.707519531 30.56153678894043
          559960.416229248 5929581.707519531 25.63065528869629 560560.4161987305 5928181.707519531 7.397287368774414
          560060.4162330627 5929781.707550049 6.061048984527588 560160.416229248 5928981.707519531 27.06977081298828
          568360.416015625 5930081.70753479 -45.3926887512207 560060.416229248 5928981.707519531 25.628116607666016
          560760.4161987305 5928581.707519531 11.300811767578125 561260.4162597656 5928781.707519531 31.161624908447266
          568060.416015625 5930081.707496643 -40.32036590576172 561160.4162597656 5928681.707519531 13.372905731201172
          561460.4162597656 5929481.707519531 12.546582221984863 560160.416229248 5928881.707519531 25.02457046508789
          560060.416229248 5929081.707519531 26.219655990600586 560760.4162597656 5928481.707519531 9.960885047912598
          561560.4162597656 5930181.707443237 6.8021721839904785 561060.4162597656 5928181.707519531 27.768802642822266
          561260.4162597656 5928381.707519531 13.057201385498047 560360.416229248 5928281.707519531 22.84913444519043
          560060.416229248 5929381.707519531 25.817625045776367 568260.416015625 5930081.707557678 -43.574214935302734
          560960.4162597656 5928181.707519531 27.306886672973633 560660.4162597656 5930581.707519531 -2.9448437690734863
          560560.4162597656 5930581.707580566 -1.7009305953979492 561460.4162597656 5929381.707519531 11.933446884155273
          560060.416229248 5929881.707550049 24.502315521240234 560460.416229248 5930581.707519531 -1.0849817991256714
          560160.416229248 5928981.707519531 8.724349975585938 560560.4161987305 5928181.707519531 24.559581756591797
          560760.4161987305 5930481.707489014 -0.5188450813293457 567960.416015625 5930081.707458496 -39.32045364379883
          561460.4162597656 5929181.707519531 11.602713584899902 560660.4161987305 5930481.707519531 0.23783206939697266
          559960.416229248 5929681.707550049 6.353756904602051 567960.416015625 5929681.707519531 -10.915536880493164
          561260.4162597656 5928281.707519531 12.49760627746582 560360.416229248 5928181.707519531 22.47731590270996
          560060.4162330627 5929281.707458496 25.743091583251953 560260.416229248 5928681.707519531 7.837878227233887
          560460.416229248 5928181.707519531 23.977075576782227 561460.4162597656 5929281.707641602 12.472038269042969
          560060.4162254333 5929781.707550049 24.845333099365234 560260.416229248 5928681.707519531 25.649301528930664
          568360.416015625 5930081.70753479 -32.339622497558594 560560.4162597656 5928081.707519531 23.432254791259766
          561260.4162597656 5930281.707489014 4.088521957397461 567960.416015625 5929581.707458496 -22.53131103515625
          568160.416015625 5929781.707504272 -40.00311279296875 561160.4162597656 5930281.707580566 4.735296249389648
          568060.416015625 5929781.707489014 -38.431968688964844 560060.416229248 5929081.707519531 7.781899452209473
          <InformationKey name="L2_NORM_RANGE" location="vtkDataArray" length="2">
            <Value index="0">
              5954525.8648
            </Value>
            <Value index="1">
              5961389.31
            </Value>
          </InformationKey>
        </DataArray>
      </Points>
      <Cells>
        <DataArray type="Int64" Name="connectivity" format="ascii" RangeMin="0" RangeMax="137">
          0 3 4 1 1 4
          5 2 4 6 7 5
          8 10 11 9 12 14
          15 13 113 110 29 28
          110 109 30 29 119 116
          32 31 135 132 34 33
          79 76 36 35 102 78
          38 37 86 83 40 39
          117 96 42 41 107 92
          130 43 80 90 128 112
          136 134 45 44 120 16
          88 77 84 17 133 121
          98 111 47 46 74 85
          124 106 127 118 49 48
          137 18 93 100 114 19
          99 91 20 21 95 87
          125 22 75 129 97 82
          52 50 94 101 54 51
          82 81 53 52 104 122
          56 55 73 23 123 105
          23 24 126 123 89 27
          131 115 25 26 103 108
          57 58 66 65 59 60
          68 67 61 62 70 69
          63 64 72 71
        </DataArray>
        <DataArray type="Int64" Name="offsets" format="ascii" RangeMin="4" RangeMax="148">
          4 8 12 16 20 24
          28 32 36 40 44 48
          52 56 60 64 68 72
          76 80 84 88 92 96
          100 104 108 112 116 120
          124 128 132 136 140 144
          148
        </DataArray>
        <DataArray type="UInt8" Name="types" format="ascii" RangeMin="9" RangeMax="9">
          9 9 9 9 9 9
          9 9 9 9 9 9
          9 9 9 9 9 9
          9 9 9 9 9 9
          9 9 9 9 9 9
          9 9 9 9 9 9
          9
        </DataArray>
      </Cells>
    </Piece>
  </UnstructuredGrid>
</VTKFile>
