<?xml version="1.0"?>
<VTKFile type="UnstructuredGrid" version="0.1" byte_order="LittleEndian">
<!--This file was created by meshio v5.3.5-->
<UnstructuredGrid>
<Piece NumberOfPoints="66" NumberOfCells="69">
<Points>
<DataArray type="Float64" Name="Points" NumberOfComponents="3" format="ascii">
0.00000000000e+00
1.50000000000e+04
0.00000000000e+00
0.00000000000e+00
-1.50000000000e+04
0.00000000000e+00
0.00000000000e+00
-1.40000000000e+04
0.00000000000e+00
0.00000000000e+00
-1.30000000000e+04
0.00000000000e+00
0.00000000000e+00
-1.20000000000e+04
0.00000000000e+00
0.00000000000e+00
-1.10000000000e+04
0.00000000000e+00
0.00000000000e+00
-9.99999999999e+03
0.00000000000e+00
0.00000000000e+00
-8.99999999999e+03
0.00000000000e+00
0.00000000000e+00
-7.99999999999e+03
0.00000000000e+00
0.00000000000e+00
-6.99999999999e+03
0.00000000000e+00
0.00000000000e+00
-6.00000000000e+03
0.00000000000e+00
0.00000000000e+00
-5.00000000000e+03
0.00000000000e+00
0.00000000000e+00
-4.00000000000e+03
0.00000000000e+00
0.00000000000e+00
-3.00000000001e+03
0.00000000000e+00
0.00000000000e+00
-2.00000000001e+03
0.00000000000e+00
0.00000000000e+00
-1.00000000002e+03
0.00000000000e+00
0.00000000000e+00
-2.23826646106e-08
0.00000000000e+00
0.00000000000e+00
9.99999999979e+02
0.00000000000e+00
0.00000000000e+00
1.99999999998e+03
0.00000000000e+00
0.00000000000e+00
2.99999999998e+03
0.00000000000e+00
0.00000000000e+00
3.99999999998e+03
0.00000000000e+00
0.00000000000e+00
4.99999999998e+03
0.00000000000e+00
0.00000000000e+00
5.99999999999e+03
0.00000000000e+00
0.00000000000e+00
6.99999999999e+03
0.00000000000e+00
0.00000000000e+00
7.99999999999e+03
0.00000000000e+00
0.00000000000e+00
8.99999999999e+03
0.00000000000e+00
0.00000000000e+00
9.99999999999e+03
0.00000000000e+00
0.00000000000e+00
1.10000000000e+04
0.00000000000e+00
0.00000000000e+00
1.20000000000e+04
0.00000000000e+00
0.00000000000e+00
1.30000000000e+04
0.00000000000e+00
0.00000000000e+00
1.40000000000e+04
0.00000000000e+00
-8.55146559435e+01
-1.40322338520e+04
0.00000000000e+00
-1.79344031307e+02
-1.30652369813e+04
0.00000000000e+00
-2.79475810872e+02
-1.20988712859e+04
0.00000000000e+00
-3.83913355568e+02
-1.11329606941e+04
0.00000000000e+00
-4.90671720353e+02
-1.01673034598e+04
0.00000000000e+00
-5.97772592522e+02
-9.20168408947e+03
0.00000000000e+00
-7.03238656389e+02
-8.23588507707e+03
0.00000000000e+00
-8.05087877346e+02
-7.26969858022e+03
0.00000000000e+00
-9.01328185783e+02
-6.30293825583e+03
0.00000000000e+00
-9.89953060144e+02
-5.33545142360e+03
0.00000000000e+00
-1.06893854233e+03
-4.36713165648e+03
0.00000000000e+00
-1.13624224947e+03
-3.39793197351e+03
0.00000000000e+00
-1.18980502491e+03
-2.42787826940e+03
0.00000000000e+00
-1.22755583558e+03
-1.45708346235e+03
0.00000000000e+00
-1.24742063081e+03
-4.85761222738e+02
0.00000000000e+00
-1.24742062995e+03
4.85761303896e+02
0.00000000000e+00
-1.22755583332e+03
1.45708353771e+03
0.00000000000e+00
-1.18980502161e+03
2.42787833896e+03
0.00000000000e+00
-1.13624224571e+03
3.39793203346e+03
0.00000000000e+00
-1.06893853786e+03
4.36713171529e+03
0.00000000000e+00
-9.89953055495e+02
5.33545147707e+03
0.00000000000e+00
-9.01328181113e+02
6.30293830451e+03
0.00000000000e+00
-8.05087872911e+02
7.26969862336e+03
0.00000000000e+00
-7.03238652307e+02
8.23588511499e+03
0.00000000000e+00
-5.97772588988e+02
9.20168412148e+03
0.00000000000e+00
-4.90671717397e+02
1.01673034864e+04
0.00000000000e+00
-3.83913353285e+02
1.11329607149e+04
0.00000000000e+00
-2.79475809236e+02
1.20988713013e+04
0.00000000000e+00
-1.79344030325e+02
1.30652369910e+04
0.00000000000e+00
-8.55146554557e+01
1.40322338572e+04
0.00000000000e+00
-7.84371101652e+02
3.17240171398e-05
0.00000000000e+00
-6.99534988086e+02
-9.21716131521e+02
0.00000000000e+00
-6.99534988551e+02
9.21716201499e+02
0.00000000000e+00
-6.99643042004e+02
-1.92268618431e+03
0.00000000000e+00
-6.99643044291e+02
1.92268625631e+03
0.00000000000e+00

</DataArray>
</Points>
<Cells>
<DataArray type="Int64" Name="connectivity" format="ascii">
38
8
9
53
23
24
43
42
13
48
19
49
42
12
13
49
19
20
43
13
64
19
48
65
42
41
12
49
20
50
41
11
12
50
20
21
39
38
9
52
23
53
39
9
10
52
22
23
41
40
11
50
21
51
13
14
64
18
19
65
40
10
11
51
21
22
40
39
10
51
22
52
61
16
63
16
61
62
16
17
63
15
16
62
63
17
65
15
62
64
17
18
65
14
15
64
46
45
61
45
44
62
47
46
63
44
43
64
48
47
65
61
45
62
46
61
63
62
44
64
47
63
65
60
30
0
31
1
2
32
2
3
32
31
2
33
3
4
33
32
3
58
28
29
59
29
30
58
29
59
59
30
60
34
4
5
34
33
4
35
5
6
35
34
5
36
6
7
36
35
6
37
7
8
37
36
7
38
37
8
54
24
25
53
24
54
55
25
26
54
25
55
56
26
27
55
26
56
57
27
28
56
27
57
57
28
58

</DataArray>
<DataArray type="Int64" Name="offsets" format="ascii">
3
6
9
12
15
18
21
24
27
30
33
36
39
42
45
48
51
54
57
60
63
66
69
72
75
78
81
84
87
90
93
96
99
102
105
108
111
114
117
120
123
126
129
132
135
138
141
144
147
150
153
156
159
162
165
168
171
174
177
180
183
186
189
192
195
198
201
204
207

</DataArray>
<DataArray type="Int64" Name="types" format="ascii">
5
5
5
5
5
5
5
5
5
5
5
5
5
5
5
5
5
5
5
5
5
5
5
5
5
5
5
5
5
5
5
5
5
5
5
5
5
5
5
5
5
5
5
5
5
5
5
5
5
5
5
5
5
5
5
5
5
5
5
5
5
5
5
5
5
5
5
5
5

</DataArray>
</Cells>
<PointData>
<DataArray type="Int64" Name="gmsh:dim_tags" NumberOfComponents="2" format="ascii">
0
8
0
9
1
7
1
7
1
7
1
7
1
7
1
7
1
7
1
7
1
7
1
7
1
7
1
7
1
7
1
7
1
7
1
7
1
7
1
7
1
7
1
7
1
7
1
7
1
7
1
7
1
7
1
7
1
7
1
7
1
7
1
11
1
11
1
11
1
11
1
11
1
11
1
11
1
11
1
11
1
11
1
11
1
11
1
11
1
11
1
11
1
11
1
11
1
11
1
11
1
11
1
11
1
11
1
11
1
11
1
11
1
11
1
11
1
11
1
11
1
11
2
1
2
1
2
1
2
1
2
1

</DataArray>
</PointData>
<CellData>
<DataArray type="Int64" Name="gmsh:physical" format="ascii">
5
5
5
5
5
5
5
5
5
5
5
5
5
5
5
5
5
5
5
5
5
5
5
5
5
5
5
5
5
5
5
5
5
5
5
5
5
5
5
5
5
5
5
5
5
5
5
5
5
5
5
5
5
5
5
5
5
5
5
5
5
5
5
5
5
5
5
5
5

</DataArray>
</CellData>
</Piece>
</UnstructuredGrid>
</VTKFile>
