<?xml version="1.0"?>
<VTKFile type="UnstructuredGrid" version="1.0" byte_order="LittleEndian" header_type="UInt64">
  <UnstructuredGrid>
    <Piece NumberOfPoints="121" NumberOfCells="100">
      <PointData>
        <DataArray type="Float64" Name="CellDataDoubleTestArray" format="ascii" RangeMin="-0.9589242746631385" RangeMax="0.9893582466233818">
          0 0.8414709848078965 0.9092974268256817 0.14112000805986677 -0.7568024953079282 -0.9589242746631385
          -0.279415498198925 0.6569865987187897 0.9893582466233818 0.4121184852417566 -0.5440211108893698 0
          0.8414709848078965 0.9092974268256817 0.14112000805986677 -0.7568024953079282 -0.9589242746631385 -0.279415498198925
          0.6569865987187897 0.9893582466233818 0.4121184852417566 -0.5440211108893698 0 0.8414709848078965
          0.9092974268256817 0.14112000805986677 -0.7568024953079282 -0.9589242746631385 -0.279415498198925 0.6569865987187897
          0.9893582466233818 0.4121184852417566 -0.5440211108893698 0 0.8414709848078965 0.9092974268256817
          0.14112000805986677 -0.7568024953079282 -0.9589242746631385 -0.279415498198925 0.6569865987187897 0.9893582466233818
          0.4121184852417566 -0.5440211108893698 0 0.8414709848078965 0.9092974268256817 0.14112000805986677
          -0.7568024953079282 -0.9589242746631385 -0.279415498198925 0.6569865987187897 0.9893582466233818 0.4121184852417566
          -0.5440211108893698 0 0.8414709848078965 0.9092974268256817 0.14112000805986677 -0.7568024953079282
          -0.9589242746631385 -0.279415498198925 0.6569865987187897 0.9893582466233818 0.4121184852417566 -0.5440211108893698
          0 0.8414709848078965 0.9092974268256817 0.14112000805986677 -0.7568024953079282 -0.9589242746631385
          -0.279415498198925 0.6569865987187897 0.9893582466233818 0.4121184852417566 -0.5440211108893698 0
          0.8414709848078965 0.9092974268256817 0.14112000805986677 -0.7568024953079282 -0.9589242746631385 -0.279415498198925
          0.6569865987187897 0.9893582466233818 0.4121184852417566 -0.5440211108893698 0 0.8414709848078965
          0.9092974268256817 0.14112000805986677 -0.7568024953079282 -0.9589242746631385 -0.279415498198925 0.6569865987187897
          0.9893582466233818 0.4121184852417566 -0.5440211108893698 0 0.8414709848078965 0.9092974268256817
          0.14112000805986677 -0.7568024953079282 -0.9589242746631385 -0.279415498198925 0.6569865987187897 0.9893582466233818
          0.4121184852417566 -0.5440211108893698 0 0.8414709848078965 0.9092974268256817 0.14112000805986677
          -0.7568024953079282 -0.9589242746631385 -0.279415498198925 0.6569865987187897 0.9893582466233818 0.4121184852417566
          -0.5440211108893698
        </DataArray>
        <DataArray type="Float64" Name="PointDataDoubleTestArray" format="ascii" RangeMin="0" RangeMax="1">
          0 0 0 0 0 0
          0 0 0 0 0 0.010000000000000002
          0.010000000000000002 0.010000000000000002 0.010000000000000002 0.010000000000000002 0.010000000000000002 0.010000000000000002
          0.010000000000000002 0.010000000000000002 0.010000000000000002 0.010000000000000002 0.04000000000000001 0.04000000000000001
          0.04000000000000001 0.04000000000000001 0.04000000000000001 0.04000000000000001 0.04000000000000001 0.04000000000000001
          0.04000000000000001 0.04000000000000001 0.04000000000000001 0.09000000000000002 0.09000000000000002 0.09000000000000002
          0.09000000000000002 0.09000000000000002 0.09000000000000002 0.09000000000000002 0.09000000000000002 0.09000000000000002
          0.09000000000000002 0.09000000000000002 0.16000000000000003 0.16000000000000003 0.16000000000000003 0.16000000000000003
          0.16000000000000003 0.16000000000000003 0.16000000000000003 0.16000000000000003 0.16000000000000003 0.16000000000000003
          0.16000000000000003 0.25 0.25 0.25 0.25 0.25
          0.25 0.25 0.25 0.25 0.25 0.25
          0.3600000000000001 0.3600000000000001 0.3600000000000001 0.3600000000000001 0.3600000000000001 0.3600000000000001
          0.3600000000000001 0.3600000000000001 0.3600000000000001 0.3600000000000001 0.3600000000000001 0.4900000000000001
          0.4900000000000001 0.4900000000000001 0.4900000000000001 0.4900000000000001 0.4900000000000001 0.4900000000000001
          0.4900000000000001 0.4900000000000001 0.4900000000000001 0.4900000000000001 0.6400000000000001 0.6400000000000001
          0.6400000000000001 0.6400000000000001 0.6400000000000001 0.6400000000000001 0.6400000000000001 0.6400000000000001
          0.6400000000000001 0.6400000000000001 0.6400000000000001 0.81 0.81 0.81
          0.81 0.81 0.81 0.81 0.81 0.81
          0.81 0.81 1 1 1 1
          1 1 1 1 1 1
          1
        </DataArray>
        <DataArray type="UInt64" Name="bulk_node_ids" format="ascii" RangeMin="0" RangeMax="120">
          0 1 2 3 4 5
          6 7 8 9 10 11
          12 13 14 15 16 17
          18 19 20 21 22 23
          24 25 26 27 28 29
          30 31 32 33 34 35
          36 37 38 39 40 41
          42 43 44 45 46 47
          48 49 50 51 52 53
          54 55 56 57 58 59
          60 61 62 63 64 65
          66 67 68 69 70 71
          72 73 74 75 76 77
          78 79 80 81 82 83
          84 85 86 87 88 89
          90 91 92 93 94 95
          96 97 98 99 100 101
          102 103 104 105 106 107
          108 109 110 111 112 113
          114 115 116 117 118 119
          120
        </DataArray>
      </PointData>
      <CellData>
        <DataArray type="Int32" Name="MaterialIDs" format="ascii" RangeMin="0" RangeMax="0">
          0 0 0 0 0 0
          0 0 0 0 0 0
          0 0 0 0 0 0
          0 0 0 0 0 0
          0 0 0 0 0 0
          0 0 0 0 0 0
          0 0 0 0 0 0
          0 0 0 0 0 0
          0 0 0 0 0 0
          0 0 0 0 0 0
          0 0 0 0 0 0
          0 0 0 0 0 0
          0 0 0 0 0 0
          0 0 0 0 0 0
          0 0 0 0 0 0
          0 0 0 0 0 0
          0 0 0 0
        </DataArray>
        <DataArray type="UInt64" Name="bulk_element_ids" format="ascii" RangeMin="0" RangeMax="99">
          0 1 2 3 4 5
          6 7 8 9 10 11
          12 13 14 15 16 17
          18 19 20 21 22 23
          24 25 26 27 28 29
          30 31 32 33 34 35
          36 37 38 39 40 41
          42 43 44 45 46 47
          48 49 50 51 52 53
          54 55 56 57 58 59
          60 61 62 63 64 65
          66 67 68 69 70 71
          72 73 74 75 76 77
          78 79 80 81 82 83
          84 85 86 87 88 89
          90 91 92 93 94 95
          96 97 98 99
        </DataArray>
        <DataArray type="UInt64" Name="bulk_face_ids" format="ascii" RangeMin="0" RangeMax="0">
          0 0 0 0 0 0
          0 0 0 0 0 0
          0 0 0 0 0 0
          0 0 0 0 0 0
          0 0 0 0 0 0
          0 0 0 0 0 0
          0 0 0 0 0 0
          0 0 0 0 0 0
          0 0 0 0 0 0
          0 0 0 0 0 0
          0 0 0 0 0 0
          0 0 0 0 0 0
          0 0 0 0 0 0
          0 0 0 0 0 0
          0 0 0 0 0 0
          0 0 0 0 0 0
          0 0 0 0
        </DataArray>
      </CellData>
      <Points>
        <DataArray type="Float64" Name="Points" NumberOfComponents="3" format="ascii" RangeMin="0" RangeMax="1.4142135623730951">
          0 0 0 0.1 0 0
          0.2 0 0 0.30000000000000004 0 0
          0.4 0 0 0.5 0 0
          0.6000000000000001 0 0 0.7000000000000001 0 0
          0.8 0 0 0.9 0 0
          1 0 0 0 0.1 0
          0.1 0.1 0 0.2 0.1 0
          0.30000000000000004 0.1 0 0.4 0.1 0
          0.5 0.1 0 0.6000000000000001 0.1 0
          0.7000000000000001 0.1 0 0.8 0.1 0
          0.9 0.1 0 1 0.1 0
          0 0.2 0 0.1 0.2 0
          0.2 0.2 0 0.30000000000000004 0.2 0
          0.4 0.2 0 0.5 0.2 0
          0.6000000000000001 0.2 0 0.7000000000000001 0.2 0
          0.8 0.2 0 0.9 0.2 0
          1 0.2 0 0 0.30000000000000004 0
          0.1 0.30000000000000004 0 0.2 0.30000000000000004 0
          0.30000000000000004 0.30000000000000004 0 0.4 0.30000000000000004 0
          0.5 0.30000000000000004 0 0.6000000000000001 0.30000000000000004 0
          0.7000000000000001 0.30000000000000004 0 0.8 0.30000000000000004 0
          0.9 0.30000000000000004 0 1 0.30000000000000004 0
          0 0.4 0 0.1 0.4 0
          0.2 0.4 0 0.30000000000000004 0.4 0
          0.4 0.4 0 0.5 0.4 0
          0.6000000000000001 0.4 0 0.7000000000000001 0.4 0
          0.8 0.4 0 0.9 0.4 0
          1 0.4 0 0 0.5 0
          0.1 0.5 0 0.2 0.5 0
          0.30000000000000004 0.5 0 0.4 0.5 0
          0.5 0.5 0 0.6000000000000001 0.5 0
          0.7000000000000001 0.5 0 0.8 0.5 0
          0.9 0.5 0 1 0.5 0
          0 0.6000000000000001 0 0.1 0.6000000000000001 0
          0.2 0.6000000000000001 0 0.30000000000000004 0.6000000000000001 0
          0.4 0.6000000000000001 0 0.5 0.6000000000000001 0
          0.6000000000000001 0.6000000000000001 0 0.7000000000000001 0.6000000000000001 0
          0.8 0.6000000000000001 0 0.9 0.6000000000000001 0
          1 0.6000000000000001 0 0 0.7000000000000001 0
          0.1 0.7000000000000001 0 0.2 0.7000000000000001 0
          0.30000000000000004 0.7000000000000001 0 0.4 0.7000000000000001 0
          0.5 0.7000000000000001 0 0.6000000000000001 0.7000000000000001 0
          0.7000000000000001 0.7000000000000001 0 0.8 0.7000000000000001 0
          0.9 0.7000000000000001 0 1 0.7000000000000001 0
          0 0.8 0 0.1 0.8 0
          0.2 0.8 0 0.30000000000000004 0.8 0
          0.4 0.8 0 0.5 0.8 0
          0.6000000000000001 0.8 0 0.7000000000000001 0.8 0
          0.8 0.8 0 0.9 0.8 0
          1 0.8 0 0 0.9 0
          0.1 0.9 0 0.2 0.9 0
          0.30000000000000004 0.9 0 0.4 0.9 0
          0.5 0.9 0 0.6000000000000001 0.9 0
          0.7000000000000001 0.9 0 0.8 0.9 0
          0.9 0.9 0 1 0.9 0
          0 1 0 0.1 1 0
          0.2 1 0 0.30000000000000004 1 0
          0.4 1 0 0.5 1 0
          0.6000000000000001 1 0 0.7000000000000001 1 0
          0.8 1 0 0.9 1 0
          1 1 0
          <InformationKey name="L2_NORM_RANGE" location="vtkDataArray" length="2">
            <Value index="0">
              0
            </Value>
            <Value index="1">
              1.4142135624
            </Value>
          </InformationKey>
        </DataArray>
      </Points>
      <Cells>
        <DataArray type="Int64" Name="connectivity" format="ascii" RangeMin="0" RangeMax="120">
          0 11 12 1 1 12
          13 2 2 13 14 3
          3 14 15 4 4 15
          16 5 5 16 17 6
          6 17 18 7 7 18
          19 8 8 19 20 9
          9 20 21 10 11 22
          23 12 12 23 24 13
          13 24 25 14 14 25
          26 15 15 26 27 16
          16 27 28 17 17 28
          29 18 18 29 30 19
          19 30 31 20 20 31
          32 21 22 33 34 23
          23 34 35 24 24 35
          36 25 25 36 37 26
          26 37 38 27 27 38
          39 28 28 39 40 29
          29 40 41 30 30 41
          42 31 31 42 43 32
          33 44 45 34 34 45
          46 35 35 46 47 36
          36 47 48 37 37 48
          49 38 38 49 50 39
          39 50 51 40 40 51
          52 41 41 52 53 42
          42 53 54 43 44 55
          56 45 45 56 57 46
          46 57 58 47 47 58
          59 48 48 59 60 49
          49 60 61 50 50 61
          62 51 51 62 63 52
          52 63 64 53 53 64
          65 54 55 66 67 56
          56 67 68 57 57 68
          69 58 58 69 70 59
          59 70 71 60 60 71
          72 61 61 72 73 62
          62 73 74 63 63 74
          75 64 64 75 76 65
          66 77 78 67 67 78
          79 68 68 79 80 69
          69 80 81 70 70 81
          82 71 71 82 83 72
          72 83 84 73 73 84
          85 74 74 85 86 75
          75 86 87 76 77 88
          89 78 78 89 90 79
          79 90 91 80 80 91
          92 81 81 92 93 82
          82 93 94 83 83 94
          95 84 84 95 96 85
          85 96 97 86 86 97
          98 87 88 99 100 89
          89 100 101 90 90 101
          102 91 91 102 103 92
          92 103 104 93 93 104
          105 94 94 105 106 95
          95 106 107 96 96 107
          108 97 97 108 109 98
          99 110 111 100 100 111
          112 101 101 112 113 102
          102 113 114 103 103 114
          115 104 104 115 116 105
          105 116 117 106 106 117
          118 107 107 118 119 108
          108 119 120 109
        </DataArray>
        <DataArray type="Int64" Name="offsets" format="ascii" RangeMin="4" RangeMax="400">
          4 8 12 16 20 24
          28 32 36 40 44 48
          52 56 60 64 68 72
          76 80 84 88 92 96
          100 104 108 112 116 120
          124 128 132 136 140 144
          148 152 156 160 164 168
          172 176 180 184 188 192
          196 200 204 208 212 216
          220 224 228 232 236 240
          244 248 252 256 260 264
          268 272 276 280 284 288
          292 296 300 304 308 312
          316 320 324 328 332 336
          340 344 348 352 356 360
          364 368 372 376 380 384
          388 392 396 400
        </DataArray>
        <DataArray type="UInt8" Name="types" format="ascii" RangeMin="9" RangeMax="9">
          9 9 9 9 9 9
          9 9 9 9 9 9
          9 9 9 9 9 9
          9 9 9 9 9 9
          9 9 9 9 9 9
          9 9 9 9 9 9
          9 9 9 9 9 9
          9 9 9 9 9 9
          9 9 9 9 9 9
          9 9 9 9 9 9
          9 9 9 9 9 9
          9 9 9 9 9 9
          9 9 9 9 9 9
          9 9 9 9 9 9
          9 9 9 9 9 9
          9 9 9 9 9 9
          9 9 9 9
        </DataArray>
      </Cells>
    </Piece>
  </UnstructuredGrid>
</VTKFile>
