<?xml version="1.0"?>
<VTKFile type="UnstructuredGrid" version="0.1" byte_order="LittleEndian">
<!--This file was created by meshio v5.3.5-->
<UnstructuredGrid>
<Piece NumberOfPoints="177" NumberOfCells="230">
<Points>
<DataArray type="Float64" Name="Points" NumberOfComponents="3" format="ascii">
0.00000000000e+00
2.00000000000e+04
0.00000000000e+00
0.00000000000e+00
-2.00000000000e+04
0.00000000000e+00
0.00000000000e+00
3.00000000000e+04
0.00000000000e+00
0.00000000000e+00
-3.00000000000e+04
0.00000000000e+00
0.00000000000e+00
-2.90000000000e+04
0.00000000000e+00
0.00000000000e+00
-2.80000000000e+04
0.00000000000e+00
0.00000000000e+00
-2.70000000000e+04
0.00000000000e+00
0.00000000000e+00
-2.60000000000e+04
0.00000000000e+00
0.00000000000e+00
-2.50000000000e+04
0.00000000000e+00
0.00000000000e+00
-2.40000000000e+04
0.00000000000e+00
0.00000000000e+00
-2.30000000000e+04
0.00000000000e+00
0.00000000000e+00
-2.20000000000e+04
0.00000000000e+00
0.00000000000e+00
-2.10000000000e+04
0.00000000000e+00
0.00000000000e+00
2.10000000000e+04
0.00000000000e+00
0.00000000000e+00
2.20000000000e+04
0.00000000000e+00
0.00000000000e+00
2.30000000000e+04
0.00000000000e+00
0.00000000000e+00
2.40000000000e+04
0.00000000000e+00
0.00000000000e+00
2.50000000000e+04
0.00000000000e+00
0.00000000000e+00
2.60000000000e+04
0.00000000000e+00
0.00000000000e+00
2.70000000000e+04
0.00000000000e+00
0.00000000000e+00
2.80000000000e+04
0.00000000000e+00
0.00000000000e+00
2.90000000000e+04
0.00000000000e+00
-1.27647002217e+02
-1.90241178383e+04
0.00000000000e+00
-2.65258356715e+02
-1.80495893331e+04
0.00000000000e+00
-4.11084599325e+02
-1.70762549464e+04
0.00000000000e+00
-5.63401096676e+02
-1.61039140581e+04
0.00000000000e+00
-7.20504467003e+02
-1.51323344478e+04
0.00000000000e+00
-8.80707966206e+02
-1.41612607364e+04
0.00000000000e+00
-1.04233601077e+03
-1.31904229072e+04
0.00000000000e+00
-1.20371826031e+03
-1.22195442240e+04
0.00000000000e+00
-1.36318346413e+03
-1.12483491128e+04
0.00000000000e+00
-1.51905335201e+03
-1.02765710272e+04
0.00000000000e+00
-1.66963682138e+03
-9.30396050163e+03
0.00000000000e+00
-1.81322467331e+03
-8.33029369565e+03
0.00000000000e+00
-1.94808527029e+03
-7.35538111197e+03
0.00000000000e+00
-2.07246136763e+03
-6.37907717133e+03
0.00000000000e+00
-2.18456858371e+03
-5.40129017914e+03
0.00000000000e+00
-2.28259580937e+03
-4.42199393236e+03
0.00000000000e+00
-2.36470841790e+03
-3.44123738946e+03
0.00000000000e+00
-2.42905416919e+03
-2.45915794805e+03
0.00000000000e+00
-2.47377293617e+03
-1.47599231170e+03
0.00000000000e+00
-2.49701035609e+03
-4.92087894440e+02
0.00000000000e+00
-2.49701035480e+03
4.92088001135e+02
0.00000000000e+00
-2.47377293266e+03
1.47599241240e+03
0.00000000000e+00
-2.42905416390e+03
2.45915804287e+03
0.00000000000e+00
-2.36470841120e+03
3.44123747899e+03
0.00000000000e+00
-2.28259580168e+03
4.42199401573e+03
0.00000000000e+00
-2.18456857533e+03
5.40129025694e+03
0.00000000000e+00
-2.07246135886e+03
6.37907724367e+03
0.00000000000e+00
-1.94808526138e+03
7.35538117888e+03
0.00000000000e+00
-1.81322466451e+03
8.33029375705e+03
0.00000000000e+00
-1.66963681285e+03
9.30396055792e+03
0.00000000000e+00
-1.51905334382e+03
1.02765710790e+04
0.00000000000e+00
-1.36318345652e+03
1.12483491596e+04
0.00000000000e+00
-1.20371825350e+03
1.22195442652e+04
0.00000000000e+00
-1.04233600477e+03
1.31904229433e+04
0.00000000000e+00
-8.80707961039e+02
1.41612607675e+04
0.00000000000e+00
-7.20504462705e+02
1.51323344741e+04
0.00000000000e+00
-5.63401093545e+02
1.61039140778e+04
0.00000000000e+00
-4.11084596891e+02
1.70762549622e+04
0.00000000000e+00
-2.65258355261e+02
1.80495893431e+04
0.00000000000e+00
-1.27647001510e+02
1.90241178435e+04
0.00000000000e+00
-1.26917274084e+02
-2.90158855215e+04
0.00000000000e+00
-2.60978592042e+02
-2.80327181188e+04
0.00000000000e+00
-4.01381197136e+02
-2.70504358292e+04
0.00000000000e+00
-5.47330476312e+02
-2.60689619983e+04
0.00000000000e+00
-6.98039448765e+02
-2.50882074342e+04
0.00000000000e+00
-8.52728056486e+02
-2.41080724056e+04
0.00000000000e+00
-1.01062230047e+03
-2.31284484628e+04
0.00000000000e+00
-1.17095323752e+03
-2.21492202126e+04
0.00000000000e+00
-1.33295587116e+03
-2.11702670313e+04
0.00000000000e+00
-1.49586796565e+03
-2.01914647218e+04
0.00000000000e+00
-1.65892880169e+03
-1.92126871691e+04
0.00000000000e+00
-1.82137790936e+03
-1.82338079437e+04
0.00000000000e+00
-1.98245379504e+03
-1.72547019108e+04
0.00000000000e+00
-2.14139268773e+03
-1.62752468501e+04
0.00000000000e+00
-2.29742732640e+03
-1.52953251141e+04
0.00000000000e+00
-2.44978581530e+03
-1.43148253333e+04
0.00000000000e+00
-2.59769057839e+03
-1.33336441496e+04
0.00000000000e+00
-2.74035744479e+03
-1.23516879659e+04
0.00000000000e+00
-2.87699482714e+03
-1.13688752102e+04
0.00000000000e+00
-3.00680325448e+03
-1.03851375203e+04
0.00000000000e+00
-3.12897486759e+03
-9.40042292177e+03
0.00000000000e+00
-3.24269352031e+03
-8.41469652972e+03
0.00000000000e+00
-3.34713470328e+03
-7.42794539112e+03
0.00000000000e+00
-3.44146655874e+03
-6.44017699493e+03
0.00000000000e+00
-3.52485049558e+03
-5.45142499364e+03
0.00000000000e+00
-3.59644280092e+03
-4.46175012093e+03
0.00000000000e+00
-3.65539655320e+03
-3.47124294385e+03
0.00000000000e+00
-3.70086412690e+03
-2.48002607307e+03
0.00000000000e+00
-3.73200026245e+03
-1.48825659358e+03
0.00000000000e+00
-3.74796576932e+03
-4.96127996448e+02
0.00000000000e+00
-3.74796576797e+03
4.96128161194e+02
0.00000000000e+00
-3.73200025866e+03
1.48825675226e+03
0.00000000000e+00
-3.70086412099e+03
2.48002622553e+03
0.00000000000e+00
-3.65539654546e+03
3.47124309032e+03
0.00000000000e+00
-3.59644279162e+03
4.46175026170e+03
0.00000000000e+00
-3.52485048376e+03
5.45142514421e+03
0.00000000000e+00
-3.44146654705e+03
6.44017712464e+03
0.00000000000e+00
-3.34713469078e+03
7.42794551516e+03
0.00000000000e+00
-3.24269350721e+03
8.41469664805e+03
0.00000000000e+00
-3.12897485404e+03
9.40042303484e+03
0.00000000000e+00
-3.00680324076e+03
1.03851376274e+04
0.00000000000e+00
-2.87699481328e+03
1.13688753124e+04
0.00000000000e+00
-2.74035743092e+03
1.23516880634e+04
0.00000000000e+00
-2.59769056471e+03
1.33336442420e+04
0.00000000000e+00
-2.44978580196e+03
1.43148254203e+04
0.00000000000e+00
-2.29742731356e+03
1.52953251957e+04
0.00000000000e+00
-2.14139267547e+03
1.62752469263e+04
0.00000000000e+00
-1.98245378351e+03
1.72547019814e+04
0.00000000000e+00
-1.82137789859e+03
1.82338080088e+04
0.00000000000e+00
-1.65892879172e+03
1.92126872290e+04
0.00000000000e+00
-1.49586795652e+03
2.01914647766e+04
0.00000000000e+00
-1.33295586299e+03
2.11702670805e+04
0.00000000000e+00
-1.17095323043e+03
2.21492202556e+04
0.00000000000e+00
-1.01062229441e+03
2.31284485001e+04
0.00000000000e+00
-8.52728051379e+02
2.41080724376e+04
0.00000000000e+00
-6.98039444673e+02
2.50882074604e+04
0.00000000000e+00
-5.47330473250e+02
2.60689620185e+04
0.00000000000e+00
-4.01381194926e+02
2.70504358443e+04
0.00000000000e+00
-2.60978590616e+02
2.80327181290e+04
0.00000000000e+00
-1.26917273333e+02
2.90158855271e+04
0.00000000000e+00
-2.44593520679e+02
-2.65294036466e+04
0.00000000000e+00
-2.44593524409e+02
2.65294036587e+04
0.00000000000e+00
-3.23735534748e+02
-2.55370087514e+04
0.00000000000e+00
-3.23735541320e+02
2.55370087702e+04
0.00000000000e+00
-1.25761510809e+03
1.66984389603e+04
0.00000000000e+00
-1.25761510271e+03
-1.66984389316e+04
0.00000000000e+00
-1.41639673159e+03
1.57207832068e+04
0.00000000000e+00
-1.41639673050e+03
-1.57207831683e+04
0.00000000000e+00
-1.11019105396e+03
1.76643638126e+04
0.00000000000e+00
-1.11019105087e+03
-1.76643637845e+04
0.00000000000e+00
-1.57193378119e+03
1.47470906770e+04
0.00000000000e+00
-1.57193378151e+03
-1.47470906323e+04
0.00000000000e+00
-9.65591638122e+02
1.86323742454e+04
0.00000000000e+00
-9.65591638670e+02
-1.86323742165e+04
0.00000000000e+00
-1.72642053868e+03
1.37732212446e+04
0.00000000000e+00
-1.72642053976e+03
-1.37732211948e+04
0.00000000000e+00
-8.20068686525e+02
1.95980802689e+04
0.00000000000e+00
-8.20068686157e+02
-1.95980802499e+04
0.00000000000e+00
-1.87902607676e+03
1.27985252989e+04
0.00000000000e+00
-1.87902607843e+03
-1.27985252440e+04
0.00000000000e+00
-2.02855914781e+03
1.18227784147e+04
0.00000000000e+00
-2.02855915001e+03
-1.18227783545e+04
0.00000000000e+00
-2.17378234726e+03
1.08458191194e+04
0.00000000000e+00
-2.17378234986e+03
-1.08458190540e+04
0.00000000000e+00
-2.31344674346e+03
9.86750864875e+03
0.00000000000e+00
-2.31344674615e+03
-9.86750857836e+03
0.00000000000e+00
-7.06337091612e+02
-2.05547395242e+04
0.00000000000e+00
-7.06337082997e+02
2.05547395388e+04
0.00000000000e+00
-2.44629366777e+03
8.88772912259e+03
0.00000000000e+00
-2.44629367025e+03
-8.88772904709e+03
0.00000000000e+00
-2.57105294341e+03
7.90638655741e+03
0.00000000000e+00
-2.57105294559e+03
-7.90638647656e+03
0.00000000000e+00
-2.68644131760e+03
6.92341433419e+03
0.00000000000e+00
-2.68644131927e+03
-6.92341424783e+03
0.00000000000e+00
-2.79116115567e+03
5.93877697264e+03
0.00000000000e+00
-2.79116115614e+03
-5.93877687892e+03
0.00000000000e+00
-2.88390011743e+03
4.95247453116e+03
0.00000000000e+00
-2.88390011601e+03
-4.95247443160e+03
0.00000000000e+00
-4.06122629480e+02
-2.45430158999e+04
0.00000000000e+00
-4.06122639855e+02
2.45430159276e+04
0.00000000000e+00
-2.96333139480e+03
3.96454652299e+03
0.00000000000e+00
-2.96333139323e+03
-3.96454641966e+03
0.00000000000e+00
-3.11939882570e+03
6.03736893415e-05
0.00000000000e+00
-3.02811507426e+03
2.97507641123e+03
0.00000000000e+00
-3.02811507124e+03
-2.97507630247e+03
0.00000000000e+00
-3.10714680008e+03
9.91383497708e+02
0.00000000000e+00
-3.10714679903e+03
-9.91383372448e+02
0.00000000000e+00
-3.07684663527e+03
1.98332128325e+03
0.00000000000e+00
-3.07684663234e+03
-1.98332116651e+03
0.00000000000e+00
-6.23585555902e+02
-2.15623711280e+04
0.00000000000e+00
-6.23585549127e+02
2.15623711458e+04
0.00000000000e+00
-4.84156336533e+02
-2.35502826844e+04
0.00000000000e+00
-4.84156346221e+02
2.35502827169e+04
0.00000000000e+00
-5.31267135124e+02
-2.25000000000e+04
0.00000000000e+00
-5.31267118353e+02
2.25000000000e+04
0.00000000000e+00

</DataArray>
</Points>
<Cells>
<DataArray type="Int64" Name="connectivity" format="ascii">
117
116
161
67
66
160
8
9
160
16
17
161
118
18
123
7
65
122
64
6
122
19
119
123
65
7
124
18
118
125
77
76
133
107
106
132
76
75
129
108
107
128
78
77
137
106
105
136
75
74
127
109
108
126
77
133
137
132
106
136
76
129
133
128
107
132
78
137
141
136
105
140
79
78
141
105
104
140
75
127
129
126
108
128
74
73
131
110
109
130
79
141
143
140
104
142
80
79
143
104
103
142
127
74
131
109
126
130
80
143
145
142
103
144
73
72
135
111
110
134
81
80
145
103
102
144
131
73
135
110
130
134
81
145
147
144
102
146
82
81
147
102
101
146
72
71
139
112
111
138
58
59
126
24
25
127
82
147
151
146
101
150
57
58
128
25
26
129
59
60
130
23
24
131
135
72
139
111
134
138
58
126
128
127
25
129
56
57
132
26
27
133
126
59
130
24
127
131
60
61
134
22
23
135
57
128
132
129
26
133
117
17
125
8
66
124
83
82
151
101
100
150
130
60
134
23
131
135
56
132
136
133
27
137
55
56
136
27
28
137
83
151
153
150
100
152
61
0
138
1
22
139
55
136
140
137
28
141
134
61
138
22
135
139
54
55
140
28
29
141
84
83
153
100
99
152
54
140
142
141
29
143
84
153
155
152
99
154
113
112
149
71
70
148
53
54
142
29
30
143
53
142
144
143
30
145
116
115
174
68
67
173
15
16
174
9
10
173
85
84
155
99
98
154
85
155
157
154
98
156
52
53
144
30
31
145
52
144
146
145
31
147
113
149
172
148
70
171
51
52
146
31
32
147
86
85
157
98
97
156
86
157
159
156
97
158
51
146
150
147
32
151
12
1
148
0
13
149
50
51
150
32
33
151
87
159
163
158
96
162
50
150
152
151
33
153
87
86
159
97
96
158
49
50
152
33
34
153
49
152
154
153
34
155
88
163
166
162
95
165
88
87
163
96
95
162
115
15
174
10
68
173
48
154
156
155
35
157
89
166
170
165
94
169
48
49
154
34
35
155
12
148
171
149
13
172
89
88
166
95
94
165
47
156
158
157
36
159
168
90
170
93
167
169
114
113
172
70
69
171
47
48
156
35
36
157
116
16
161
9
67
160
164
91
168
92
164
167
46
158
162
159
37
163
90
89
170
94
93
169
164
42
167
41
164
168
45
162
165
163
38
166
46
47
158
36
37
159
167
43
169
40
168
170
44
165
169
166
39
170
138
0
149
1
139
148
91
90
168
93
92
167
112
138
149
139
71
148
114
172
176
171
69
175
45
46
162
37
38
163
66
8
160
17
117
161
41
42
164
15
115
176
68
10
175
92
91
164
44
45
165
38
39
166
42
43
167
40
41
168
43
44
169
39
40
170
11
12
171
13
14
172
11
171
175
172
14
176
115
114
176
69
68
175
10
11
175
14
15
176
67
9
173
16
116
174
6
7
122
7
8
124
17
18
125
18
19
123
65
64
122
66
65
124
118
117
125
119
118
123
121
21
2
62
3
4
63
4
5
63
62
4
64
5
6
64
63
5
119
19
20
120
20
21
119
20
120
120
21
121

</DataArray>
<DataArray type="Int64" Name="offsets" format="ascii">
3
6
9
12
15
18
21
24
27
30
33
36
39
42
45
48
51
54
57
60
63
66
69
72
75
78
81
84
87
90
93
96
99
102
105
108
111
114
117
120
123
126
129
132
135
138
141
144
147
150
153
156
159
162
165
168
171
174
177
180
183
186
189
192
195
198
201
204
207
210
213
216
219
222
225
228
231
234
237
240
243
246
249
252
255
258
261
264
267
270
273
276
279
282
285
288
291
294
297
300
303
306
309
312
315
318
321
324
327
330
333
336
339
342
345
348
351
354
357
360
363
366
369
372
375
378
381
384
387
390
393
396
399
402
405
408
411
414
417
420
423
426
429
432
435
438
441
444
447
450
453
456
459
462
465
468
471
474
477
480
483
486
489
492
495
498
501
504
507
510
513
516
519
522
525
528
531
534
537
540
543
546
549
552
555
558
561
564
567
570
573
576
579
582
585
588
591
594
597
600
603
606
609
612
615
618
621
624
627
630
633
636
639
642
645
648
651
654
657
660
663
666
669
672
675
678
681
684
687
690

</DataArray>
<DataArray type="Int64" Name="types" format="ascii">
5
5
5
5
5
5
5
5
5
5
5
5
5
5
5
5
5
5
5
5
5
5
5
5
5
5
5
5
5
5
5
5
5
5
5
5
5
5
5
5
5
5
5
5
5
5
5
5
5
5
5
5
5
5
5
5
5
5
5
5
5
5
5
5
5
5
5
5
5
5
5
5
5
5
5
5
5
5
5
5
5
5
5
5
5
5
5
5
5
5
5
5
5
5
5
5
5
5
5
5
5
5
5
5
5
5
5
5
5
5
5
5
5
5
5
5
5
5
5
5
5
5
5
5
5
5
5
5
5
5
5
5
5
5
5
5
5
5
5
5
5
5
5
5
5
5
5
5
5
5
5
5
5
5
5
5
5
5
5
5
5
5
5
5
5
5
5
5
5
5
5
5
5
5
5
5
5
5
5
5
5
5
5
5
5
5
5
5
5
5
5
5
5
5
5
5
5
5
5
5
5
5
5
5
5
5
5
5
5
5
5
5
5
5
5
5
5
5
5
5
5
5
5
5
5
5
5
5
5
5

</DataArray>
</Cells>
<PointData>
<DataArray type="Int64" Name="gmsh:dim_tags" NumberOfComponents="2" format="ascii">
0
10
0
11
0
12
0
13
1
5
1
5
1
5
1
5
1
5
1
5
1
5
1
5
1
5
1
9
1
9
1
9
1
9
1
9
1
9
1
9
1
9
1
9
1
12
1
12
1
12
1
12
1
12
1
12
1
12
1
12
1
12
1
12
1
12
1
12
1
12
1
12
1
12
1
12
1
12
1
12
1
12
1
12
1
12
1
12
1
12
1
12
1
12
1
12
1
12
1
12
1
12
1
12
1
12
1
12
1
12
1
12
1
12
1
12
1
12
1
12
1
12
1
12
1
13
1
13
1
13
1
13
1
13
1
13
1
13
1
13
1
13
1
13
1
13
1
13
1
13
1
13
1
13
1
13
1
13
1
13
1
13
1
13
1
13
1
13
1
13
1
13
1
13
1
13
1
13
1
13
1
13
1
13
1
13
1
13
1
13
1
13
1
13
1
13
1
13
1
13
1
13
1
13
1
13
1
13
1
13
1
13
1
13
1
13
1
13
1
13
1
13
1
13
1
13
1
13
1
13
1
13
1
13
1
13
1
13
1
13
1
13
1
13
2
3
2
3
2
3
2
3
2
3
2
3
2
3
2
3
2
3
2
3
2
3
2
3
2
3
2
3
2
3
2
3
2
3
2
3
2
3
2
3
2
3
2
3
2
3
2
3
2
3
2
3
2
3
2
3
2
3
2
3
2
3
2
3
2
3
2
3
2
3
2
3
2
3
2
3
2
3
2
3
2
3
2
3
2
3
2
3
2
3
2
3
2
3
2
3
2
3
2
3
2
3
2
3
2
3
2
3
2
3

</DataArray>
</PointData>
<CellData>
<DataArray type="Int64" Name="gmsh:physical" format="ascii">
7
7
7
7
7
7
7
7
7
7
7
7
7
7
7
7
7
7
7
7
7
7
7
7
7
7
7
7
7
7
7
7
7
7
7
7
7
7
7
7
7
7
7
7
7
7
7
7
7
7
7
7
7
7
7
7
7
7
7
7
7
7
7
7
7
7
7
7
7
7
7
7
7
7
7
7
7
7
7
7
7
7
7
7
7
7
7
7
7
7
7
7
7
7
7
7
7
7
7
7
7
7
7
7
7
7
7
7
7
7
7
7
7
7
7
7
7
7
7
7
7
7
7
7
7
7
7
7
7
7
7
7
7
7
7
7
7
7
7
7
7
7
7
7
7
7
7
7
7
7
7
7
7
7
7
7
7
7
7
7
7
7
7
7
7
7
7
7
7
7
7
7
7
7
7
7
7
7
7
7
7
7
7
7
7
7
7
7
7
7
7
7
7
7
7
7
7
7
7
7
7
7
7
7
7
7
7
7
7
7
7
7
7
7
7
7
7
7
7
7
7
7
7
7
7
7
7
7
7
7

</DataArray>
</CellData>
</Piece>
</UnstructuredGrid>
</VTKFile>
