<?xml version="1.0"?>
<VTKFile type="UnstructuredGrid" version="0.1" byte_order="LittleEndian">
<!--This file was created by meshio v5.3.5-->
<UnstructuredGrid>
<Piece NumberOfPoints="121" NumberOfCells="120">
<Points>
<DataArray type="Float64" Name="Points" NumberOfComponents="3" format="ascii">
-7.50000000000e+03
6.00000000000e+04
0.00000000000e+00
-7.50000000000e+03
-6.00000000000e+04
0.00000000000e+00
-7.50000000000e+03
5.90000000000e+04
0.00000000000e+00
-7.50000000000e+03
5.80000000000e+04
0.00000000000e+00
-7.50000000000e+03
5.70000000000e+04
0.00000000000e+00
-7.50000000000e+03
5.60000000000e+04
0.00000000000e+00
-7.50000000000e+03
5.50000000000e+04
0.00000000000e+00
-7.50000000000e+03
5.40000000000e+04
0.00000000000e+00
-7.50000000000e+03
5.30000000000e+04
0.00000000000e+00
-7.50000000000e+03
5.20000000000e+04
0.00000000000e+00
-7.50000000000e+03
5.10000000000e+04
0.00000000000e+00
-7.50000000000e+03
5.00000000000e+04
0.00000000000e+00
-7.50000000000e+03
4.90000000000e+04
0.00000000000e+00
-7.50000000000e+03
4.80000000000e+04
0.00000000000e+00
-7.50000000000e+03
4.70000000000e+04
0.00000000000e+00
-7.50000000000e+03
4.60000000000e+04
0.00000000000e+00
-7.50000000000e+03
4.50000000000e+04
0.00000000000e+00
-7.50000000000e+03
4.40000000000e+04
0.00000000000e+00
-7.50000000000e+03
4.30000000000e+04
0.00000000000e+00
-7.50000000000e+03
4.20000000000e+04
0.00000000000e+00
-7.50000000000e+03
4.10000000000e+04
0.00000000000e+00
-7.50000000000e+03
4.00000000000e+04
0.00000000000e+00
-7.50000000000e+03
3.90000000000e+04
0.00000000000e+00
-7.50000000000e+03
3.80000000000e+04
0.00000000000e+00
-7.50000000000e+03
3.70000000000e+04
0.00000000000e+00
-7.50000000000e+03
3.60000000000e+04
0.00000000000e+00
-7.50000000000e+03
3.50000000000e+04
0.00000000000e+00
-7.50000000000e+03
3.40000000000e+04
0.00000000000e+00
-7.50000000000e+03
3.30000000000e+04
0.00000000000e+00
-7.50000000000e+03
3.20000000000e+04
0.00000000000e+00
-7.50000000000e+03
3.10000000000e+04
0.00000000000e+00
-7.50000000000e+03
3.00000000000e+04
0.00000000000e+00
-7.50000000000e+03
2.90000000000e+04
0.00000000000e+00
-7.50000000000e+03
2.80000000000e+04
0.00000000000e+00
-7.50000000000e+03
2.70000000000e+04
0.00000000000e+00
-7.50000000000e+03
2.60000000000e+04
0.00000000000e+00
-7.50000000000e+03
2.50000000000e+04
0.00000000000e+00
-7.50000000000e+03
2.40000000000e+04
0.00000000000e+00
-7.50000000000e+03
2.30000000000e+04
0.00000000000e+00
-7.50000000000e+03
2.20000000000e+04
0.00000000000e+00
-7.50000000000e+03
2.10000000000e+04
0.00000000000e+00
-7.50000000000e+03
2.00000000000e+04
0.00000000000e+00
-7.50000000000e+03
1.90000000000e+04
0.00000000000e+00
-7.50000000000e+03
1.80000000000e+04
0.00000000000e+00
-7.50000000000e+03
1.70000000000e+04
0.00000000000e+00
-7.50000000000e+03
1.60000000000e+04
0.00000000000e+00
-7.50000000000e+03
1.50000000000e+04
0.00000000000e+00
-7.50000000000e+03
1.40000000000e+04
0.00000000000e+00
-7.50000000000e+03
1.30000000000e+04
0.00000000000e+00
-7.50000000000e+03
1.20000000000e+04
0.00000000000e+00
-7.50000000000e+03
1.10000000000e+04
0.00000000000e+00
-7.50000000000e+03
1.00000000000e+04
0.00000000000e+00
-7.50000000000e+03
9.00000000005e+03
0.00000000000e+00
-7.50000000000e+03
8.00000000005e+03
0.00000000000e+00
-7.50000000000e+03
7.00000000006e+03
0.00000000000e+00
-7.50000000000e+03
6.00000000006e+03
0.00000000000e+00
-7.50000000000e+03
5.00000000007e+03
0.00000000000e+00
-7.50000000000e+03
4.00000000007e+03
0.00000000000e+00
-7.50000000000e+03
3.00000000008e+03
0.00000000000e+00
-7.50000000000e+03
2.00000000008e+03
0.00000000000e+00
-7.50000000000e+03
1.00000000009e+03
0.00000000000e+00
-7.50000000000e+03
8.95306584425e-08
0.00000000000e+00
-7.50000000000e+03
-9.99999999911e+02
0.00000000000e+00
-7.50000000000e+03
-1.99999999991e+03
0.00000000000e+00
-7.50000000000e+03
-2.99999999991e+03
0.00000000000e+00
-7.50000000000e+03
-3.99999999992e+03
0.00000000000e+00
-7.50000000000e+03
-4.99999999992e+03
0.00000000000e+00
-7.50000000000e+03
-5.99999999992e+03
0.00000000000e+00
-7.50000000000e+03
-6.99999999992e+03
0.00000000000e+00
-7.50000000000e+03
-7.99999999992e+03
0.00000000000e+00
-7.50000000000e+03
-8.99999999992e+03
0.00000000000e+00
-7.50000000000e+03
-9.99999999992e+03
0.00000000000e+00
-7.50000000000e+03
-1.09999999999e+04
0.00000000000e+00
-7.50000000000e+03
-1.19999999999e+04
0.00000000000e+00
-7.50000000000e+03
-1.29999999999e+04
0.00000000000e+00
-7.50000000000e+03
-1.39999999999e+04
0.00000000000e+00
-7.50000000000e+03
-1.49999999999e+04
0.00000000000e+00
-7.50000000000e+03
-1.59999999999e+04
0.00000000000e+00
-7.50000000000e+03
-1.69999999999e+04
0.00000000000e+00
-7.50000000000e+03
-1.79999999999e+04
0.00000000000e+00
-7.50000000000e+03
-1.89999999999e+04
0.00000000000e+00
-7.50000000000e+03
-1.99999999999e+04
0.00000000000e+00
-7.50000000000e+03
-2.09999999999e+04
0.00000000000e+00
-7.50000000000e+03
-2.19999999999e+04
0.00000000000e+00
-7.50000000000e+03
-2.29999999999e+04
0.00000000000e+00
-7.50000000000e+03
-2.39999999999e+04
0.00000000000e+00
-7.50000000000e+03
-2.49999999999e+04
0.00000000000e+00
-7.50000000000e+03
-2.59999999999e+04
0.00000000000e+00
-7.50000000000e+03
-2.69999999999e+04
0.00000000000e+00
-7.50000000000e+03
-2.80000000000e+04
0.00000000000e+00
-7.50000000000e+03
-2.90000000000e+04
0.00000000000e+00
-7.50000000000e+03
-3.00000000000e+04
0.00000000000e+00
-7.50000000000e+03
-3.10000000000e+04
0.00000000000e+00
-7.50000000000e+03
-3.20000000000e+04
0.00000000000e+00
-7.50000000000e+03
-3.30000000000e+04
0.00000000000e+00
-7.50000000000e+03
-3.40000000000e+04
0.00000000000e+00
-7.50000000000e+03
-3.50000000000e+04
0.00000000000e+00
-7.50000000000e+03
-3.60000000000e+04
0.00000000000e+00
-7.50000000000e+03
-3.70000000000e+04
0.00000000000e+00
-7.50000000000e+03
-3.80000000000e+04
0.00000000000e+00
-7.50000000000e+03
-3.90000000000e+04
0.00000000000e+00
-7.50000000000e+03
-4.00000000000e+04
0.00000000000e+00
-7.50000000000e+03
-4.10000000000e+04
0.00000000000e+00
-7.50000000000e+03
-4.20000000000e+04
0.00000000000e+00
-7.50000000000e+03
-4.30000000000e+04
0.00000000000e+00
-7.50000000000e+03
-4.40000000000e+04
0.00000000000e+00
-7.50000000000e+03
-4.50000000000e+04
0.00000000000e+00
-7.50000000000e+03
-4.60000000000e+04
0.00000000000e+00
-7.50000000000e+03
-4.70000000000e+04
0.00000000000e+00
-7.50000000000e+03
-4.80000000000e+04
0.00000000000e+00
-7.50000000000e+03
-4.90000000000e+04
0.00000000000e+00
-7.50000000000e+03
-5.00000000000e+04
0.00000000000e+00
-7.50000000000e+03
-5.10000000000e+04
0.00000000000e+00
-7.50000000000e+03
-5.20000000000e+04
0.00000000000e+00
-7.50000000000e+03
-5.30000000000e+04
0.00000000000e+00
-7.50000000000e+03
-5.40000000000e+04
0.00000000000e+00
-7.50000000000e+03
-5.50000000000e+04
0.00000000000e+00
-7.50000000000e+03
-5.60000000000e+04
0.00000000000e+00
-7.50000000000e+03
-5.70000000000e+04
0.00000000000e+00
-7.50000000000e+03
-5.80000000000e+04
0.00000000000e+00
-7.50000000000e+03
-5.90000000000e+04
0.00000000000e+00

</DataArray>
</Points>
<Cells>
<DataArray type="Int64" Name="connectivity" format="ascii">
0
2
2
3
3
4
4
5
5
6
6
7
7
8
8
9
9
10
10
11
11
12
12
13
13
14
14
15
15
16
16
17
17
18
18
19
19
20
20
21
21
22
22
23
23
24
24
25
25
26
26
27
27
28
28
29
29
30
30
31
31
32
32
33
33
34
34
35
35
36
36
37
37
38
38
39
39
40
40
41
41
42
42
43
43
44
44
45
45
46
46
47
47
48
48
49
49
50
50
51
51
52
52
53
53
54
54
55
55
56
56
57
57
58
58
59
59
60
60
61
61
62
62
63
63
64
64
65
65
66
66
67
67
68
68
69
69
70
70
71
71
72
72
73
73
74
74
75
75
76
76
77
77
78
78
79
79
80
80
81
81
82
82
83
83
84
84
85
85
86
86
87
87
88
88
89
89
90
90
91
91
92
92
93
93
94
94
95
95
96
96
97
97
98
98
99
99
100
100
101
101
102
102
103
103
104
104
105
105
106
106
107
107
108
108
109
109
110
110
111
111
112
112
113
113
114
114
115
115
116
116
117
117
118
118
119
119
120
120
1

</DataArray>
<DataArray type="Int64" Name="offsets" format="ascii">
2
4
6
8
10
12
14
16
18
20
22
24
26
28
30
32
34
36
38
40
42
44
46
48
50
52
54
56
58
60
62
64
66
68
70
72
74
76
78
80
82
84
86
88
90
92
94
96
98
100
102
104
106
108
110
112
114
116
118
120
122
124
126
128
130
132
134
136
138
140
142
144
146
148
150
152
154
156
158
160
162
164
166
168
170
172
174
176
178
180
182
184
186
188
190
192
194
196
198
200
202
204
206
208
210
212
214
216
218
220
222
224
226
228
230
232
234
236
238
240

</DataArray>
<DataArray type="Int64" Name="types" format="ascii">
3
3
3
3
3
3
3
3
3
3
3
3
3
3
3
3
3
3
3
3
3
3
3
3
3
3
3
3
3
3
3
3
3
3
3
3
3
3
3
3
3
3
3
3
3
3
3
3
3
3
3
3
3
3
3
3
3
3
3
3
3
3
3
3
3
3
3
3
3
3
3
3
3
3
3
3
3
3
3
3
3
3
3
3
3
3
3
3
3
3
3
3
3
3
3
3
3
3
3
3
3
3
3
3
3
3
3
3
3
3
3
3
3
3
3
3
3
3
3
3

</DataArray>
</Cells>
<PointData>
<DataArray type="Int64" Name="gmsh:dim_tags" NumberOfComponents="2" format="ascii">
0
3
0
4
1
3
1
3
1
3
1
3
1
3
1
3
1
3
1
3
1
3
1
3
1
3
1
3
1
3
1
3
1
3
1
3
1
3
1
3
1
3
1
3
1
3
1
3
1
3
1
3
1
3
1
3
1
3
1
3
1
3
1
3
1
3
1
3
1
3
1
3
1
3
1
3
1
3
1
3
1
3
1
3
1
3
1
3
1
3
1
3
1
3
1
3
1
3
1
3
1
3
1
3
1
3
1
3
1
3
1
3
1
3
1
3
1
3
1
3
1
3
1
3
1
3
1
3
1
3
1
3
1
3
1
3
1
3
1
3
1
3
1
3
1
3
1
3
1
3
1
3
1
3
1
3
1
3
1
3
1
3
1
3
1
3
1
3
1
3
1
3
1
3
1
3
1
3
1
3
1
3
1
3
1
3
1
3
1
3
1
3
1
3
1
3
1
3
1
3
1
3
1
3
1
3
1
3
1
3
1
3
1
3
1
3
1
3
1
3
1
3
1
3
1
3
1
3
1
3
1
3
1
3
1
3
1
3
1
3
1
3

</DataArray>
</PointData>
<CellData>
<DataArray type="Int64" Name="gmsh:physical" format="ascii">
2
2
2
2
2
2
2
2
2
2
2
2
2
2
2
2
2
2
2
2
2
2
2
2
2
2
2
2
2
2
2
2
2
2
2
2
2
2
2
2
2
2
2
2
2
2
2
2
2
2
2
2
2
2
2
2
2
2
2
2
2
2
2
2
2
2
2
2
2
2
2
2
2
2
2
2
2
2
2
2
2
2
2
2
2
2
2
2
2
2
2
2
2
2
2
2
2
2
2
2
2
2
2
2
2
2
2
2
2
2
2
2
2
2
2
2
2
2
2
2

</DataArray>
</CellData>
</Piece>
</UnstructuredGrid>
</VTKFile>
