<?xml version="1.0"?>
<VTKFile type="UnstructuredGrid" version="0.1" byte_order="LittleEndian">
<!--This file was created by meshio v5.3.5-->
<UnstructuredGrid>
<Piece NumberOfPoints="256" NumberOfCells="256">
<Points>
<DataArray type="Float64" Name="Points" NumberOfComponents="3" format="ascii">
0.00000000000e+00
-6.00000000000e+04
0.00000000000e+00
0.00000000000e+00
6.00000000000e+04
0.00000000000e+00
-7.50000000000e+03
6.00000000000e+04
0.00000000000e+00
-7.50000000000e+03
-6.00000000000e+04
0.00000000000e+00
0.00000000000e+00
1.50000000000e+04
0.00000000000e+00
0.00000000000e+00
-1.50000000000e+04
0.00000000000e+00
0.00000000000e+00
2.00000000000e+04
0.00000000000e+00
0.00000000000e+00
-2.00000000000e+04
0.00000000000e+00
0.00000000000e+00
3.00000000000e+04
0.00000000000e+00
0.00000000000e+00
-3.00000000000e+04
0.00000000000e+00
-9.37500000000e+02
6.00000000000e+04
0.00000000000e+00
-1.87500000000e+03
6.00000000000e+04
0.00000000000e+00
-2.81250000000e+03
6.00000000000e+04
0.00000000000e+00
-3.74999999999e+03
6.00000000000e+04
0.00000000000e+00
-4.68749999999e+03
6.00000000000e+04
0.00000000000e+00
-5.62500000000e+03
6.00000000000e+04
0.00000000000e+00
-6.56250000000e+03
6.00000000000e+04
0.00000000000e+00
-7.50000000000e+03
5.90000000000e+04
0.00000000000e+00
-7.50000000000e+03
5.80000000000e+04
0.00000000000e+00
-7.50000000000e+03
5.70000000000e+04
0.00000000000e+00
-7.50000000000e+03
5.60000000000e+04
0.00000000000e+00
-7.50000000000e+03
5.50000000000e+04
0.00000000000e+00
-7.50000000000e+03
5.40000000000e+04
0.00000000000e+00
-7.50000000000e+03
5.30000000000e+04
0.00000000000e+00
-7.50000000000e+03
5.20000000000e+04
0.00000000000e+00
-7.50000000000e+03
5.10000000000e+04
0.00000000000e+00
-7.50000000000e+03
5.00000000000e+04
0.00000000000e+00
-7.50000000000e+03
4.90000000000e+04
0.00000000000e+00
-7.50000000000e+03
4.80000000000e+04
0.00000000000e+00
-7.50000000000e+03
4.70000000000e+04
0.00000000000e+00
-7.50000000000e+03
4.60000000000e+04
0.00000000000e+00
-7.50000000000e+03
4.50000000000e+04
0.00000000000e+00
-7.50000000000e+03
4.40000000000e+04
0.00000000000e+00
-7.50000000000e+03
4.30000000000e+04
0.00000000000e+00
-7.50000000000e+03
4.20000000000e+04
0.00000000000e+00
-7.50000000000e+03
4.10000000000e+04
0.00000000000e+00
-7.50000000000e+03
4.00000000000e+04
0.00000000000e+00
-7.50000000000e+03
3.90000000000e+04
0.00000000000e+00
-7.50000000000e+03
3.80000000000e+04
0.00000000000e+00
-7.50000000000e+03
3.70000000000e+04
0.00000000000e+00
-7.50000000000e+03
3.60000000000e+04
0.00000000000e+00
-7.50000000000e+03
3.50000000000e+04
0.00000000000e+00
-7.50000000000e+03
3.40000000000e+04
0.00000000000e+00
-7.50000000000e+03
3.30000000000e+04
0.00000000000e+00
-7.50000000000e+03
3.20000000000e+04
0.00000000000e+00
-7.50000000000e+03
3.10000000000e+04
0.00000000000e+00
-7.50000000000e+03
3.00000000000e+04
0.00000000000e+00
-7.50000000000e+03
2.90000000000e+04
0.00000000000e+00
-7.50000000000e+03
2.80000000000e+04
0.00000000000e+00
-7.50000000000e+03
2.70000000000e+04
0.00000000000e+00
-7.50000000000e+03
2.60000000000e+04
0.00000000000e+00
-7.50000000000e+03
2.50000000000e+04
0.00000000000e+00
-7.50000000000e+03
2.40000000000e+04
0.00000000000e+00
-7.50000000000e+03
2.30000000000e+04
0.00000000000e+00
-7.50000000000e+03
2.20000000000e+04
0.00000000000e+00
-7.50000000000e+03
2.10000000000e+04
0.00000000000e+00
-7.50000000000e+03
2.00000000000e+04
0.00000000000e+00
-7.50000000000e+03
1.90000000000e+04
0.00000000000e+00
-7.50000000000e+03
1.80000000000e+04
0.00000000000e+00
-7.50000000000e+03
1.70000000000e+04
0.00000000000e+00
-7.50000000000e+03
1.60000000000e+04
0.00000000000e+00
-7.50000000000e+03
1.50000000000e+04
0.00000000000e+00
-7.50000000000e+03
1.40000000000e+04
0.00000000000e+00
-7.50000000000e+03
1.30000000000e+04
0.00000000000e+00
-7.50000000000e+03
1.20000000000e+04
0.00000000000e+00
-7.50000000000e+03
1.10000000000e+04
0.00000000000e+00
-7.50000000000e+03
1.00000000000e+04
0.00000000000e+00
-7.50000000000e+03
9.00000000005e+03
0.00000000000e+00
-7.50000000000e+03
8.00000000005e+03
0.00000000000e+00
-7.50000000000e+03
7.00000000006e+03
0.00000000000e+00
-7.50000000000e+03
6.00000000006e+03
0.00000000000e+00
-7.50000000000e+03
5.00000000007e+03
0.00000000000e+00
-7.50000000000e+03
4.00000000007e+03
0.00000000000e+00
-7.50000000000e+03
3.00000000008e+03
0.00000000000e+00
-7.50000000000e+03
2.00000000008e+03
0.00000000000e+00
-7.50000000000e+03
1.00000000009e+03
0.00000000000e+00
-7.50000000000e+03
8.95306584425e-08
0.00000000000e+00
-7.50000000000e+03
-9.99999999911e+02
0.00000000000e+00
-7.50000000000e+03
-1.99999999991e+03
0.00000000000e+00
-7.50000000000e+03
-2.99999999991e+03
0.00000000000e+00
-7.50000000000e+03
-3.99999999992e+03
0.00000000000e+00
-7.50000000000e+03
-4.99999999992e+03
0.00000000000e+00
-7.50000000000e+03
-5.99999999992e+03
0.00000000000e+00
-7.50000000000e+03
-6.99999999992e+03
0.00000000000e+00
-7.50000000000e+03
-7.99999999992e+03
0.00000000000e+00
-7.50000000000e+03
-8.99999999992e+03
0.00000000000e+00
-7.50000000000e+03
-9.99999999992e+03
0.00000000000e+00
-7.50000000000e+03
-1.09999999999e+04
0.00000000000e+00
-7.50000000000e+03
-1.19999999999e+04
0.00000000000e+00
-7.50000000000e+03
-1.29999999999e+04
0.00000000000e+00
-7.50000000000e+03
-1.39999999999e+04
0.00000000000e+00
-7.50000000000e+03
-1.49999999999e+04
0.00000000000e+00
-7.50000000000e+03
-1.59999999999e+04
0.00000000000e+00
-7.50000000000e+03
-1.69999999999e+04
0.00000000000e+00
-7.50000000000e+03
-1.79999999999e+04
0.00000000000e+00
-7.50000000000e+03
-1.89999999999e+04
0.00000000000e+00
-7.50000000000e+03
-1.99999999999e+04
0.00000000000e+00
-7.50000000000e+03
-2.09999999999e+04
0.00000000000e+00
-7.50000000000e+03
-2.19999999999e+04
0.00000000000e+00
-7.50000000000e+03
-2.29999999999e+04
0.00000000000e+00
-7.50000000000e+03
-2.39999999999e+04
0.00000000000e+00
-7.50000000000e+03
-2.49999999999e+04
0.00000000000e+00
-7.50000000000e+03
-2.59999999999e+04
0.00000000000e+00
-7.50000000000e+03
-2.69999999999e+04
0.00000000000e+00
-7.50000000000e+03
-2.80000000000e+04
0.00000000000e+00
-7.50000000000e+03
-2.90000000000e+04
0.00000000000e+00
-7.50000000000e+03
-3.00000000000e+04
0.00000000000e+00
-7.50000000000e+03
-3.10000000000e+04
0.00000000000e+00
-7.50000000000e+03
-3.20000000000e+04
0.00000000000e+00
-7.50000000000e+03
-3.30000000000e+04
0.00000000000e+00
-7.50000000000e+03
-3.40000000000e+04
0.00000000000e+00
-7.50000000000e+03
-3.50000000000e+04
0.00000000000e+00
-7.50000000000e+03
-3.60000000000e+04
0.00000000000e+00
-7.50000000000e+03
-3.70000000000e+04
0.00000000000e+00
-7.50000000000e+03
-3.80000000000e+04
0.00000000000e+00
-7.50000000000e+03
-3.90000000000e+04
0.00000000000e+00
-7.50000000000e+03
-4.00000000000e+04
0.00000000000e+00
-7.50000000000e+03
-4.10000000000e+04
0.00000000000e+00
-7.50000000000e+03
-4.20000000000e+04
0.00000000000e+00
-7.50000000000e+03
-4.30000000000e+04
0.00000000000e+00
-7.50000000000e+03
-4.40000000000e+04
0.00000000000e+00
-7.50000000000e+03
-4.50000000000e+04
0.00000000000e+00
-7.50000000000e+03
-4.60000000000e+04
0.00000000000e+00
-7.50000000000e+03
-4.70000000000e+04
0.00000000000e+00
-7.50000000000e+03
-4.80000000000e+04
0.00000000000e+00
-7.50000000000e+03
-4.90000000000e+04
0.00000000000e+00
-7.50000000000e+03
-5.00000000000e+04
0.00000000000e+00
-7.50000000000e+03
-5.10000000000e+04
0.00000000000e+00
-7.50000000000e+03
-5.20000000000e+04
0.00000000000e+00
-7.50000000000e+03
-5.30000000000e+04
0.00000000000e+00
-7.50000000000e+03
-5.40000000000e+04
0.00000000000e+00
-7.50000000000e+03
-5.50000000000e+04
0.00000000000e+00
-7.50000000000e+03
-5.60000000000e+04
0.00000000000e+00
-7.50000000000e+03
-5.70000000000e+04
0.00000000000e+00
-7.50000000000e+03
-5.80000000000e+04
0.00000000000e+00
-7.50000000000e+03
-5.90000000000e+04
0.00000000000e+00
-6.56250000000e+03
-6.00000000000e+04
0.00000000000e+00
-5.62500000000e+03
-6.00000000000e+04
0.00000000000e+00
-4.68750000000e+03
-6.00000000000e+04
0.00000000000e+00
-3.75000000001e+03
-6.00000000000e+04
0.00000000000e+00
-2.81250000001e+03
-6.00000000000e+04
0.00000000000e+00
-1.87500000000e+03
-6.00000000000e+04
0.00000000000e+00
-9.37500000002e+02
-6.00000000000e+04
0.00000000000e+00
0.00000000000e+00
-2.90000000000e+04
0.00000000000e+00
0.00000000000e+00
-2.80000000000e+04
0.00000000000e+00
0.00000000000e+00
-2.70000000000e+04
0.00000000000e+00
0.00000000000e+00
-2.60000000000e+04
0.00000000000e+00
0.00000000000e+00
-2.50000000000e+04
0.00000000000e+00
0.00000000000e+00
-2.40000000000e+04
0.00000000000e+00
0.00000000000e+00
-2.30000000000e+04
0.00000000000e+00
0.00000000000e+00
-2.20000000000e+04
0.00000000000e+00
0.00000000000e+00
-2.10000000000e+04
0.00000000000e+00
0.00000000000e+00
-1.90000000000e+04
0.00000000000e+00
0.00000000000e+00
-1.80000000000e+04
0.00000000000e+00
0.00000000000e+00
-1.70000000000e+04
0.00000000000e+00
0.00000000000e+00
-1.60000000000e+04
0.00000000000e+00
0.00000000000e+00
-1.40000000000e+04
0.00000000000e+00
0.00000000000e+00
-1.30000000000e+04
0.00000000000e+00
0.00000000000e+00
-1.20000000000e+04
0.00000000000e+00
0.00000000000e+00
-1.10000000000e+04
0.00000000000e+00
0.00000000000e+00
-9.99999999999e+03
0.00000000000e+00
0.00000000000e+00
-8.99999999999e+03
0.00000000000e+00
0.00000000000e+00
-7.99999999999e+03
0.00000000000e+00
0.00000000000e+00
-6.99999999999e+03
0.00000000000e+00
0.00000000000e+00
-6.00000000000e+03
0.00000000000e+00
0.00000000000e+00
-5.00000000000e+03
0.00000000000e+00
0.00000000000e+00
-4.00000000000e+03
0.00000000000e+00
0.00000000000e+00
-3.00000000001e+03
0.00000000000e+00
0.00000000000e+00
-2.00000000001e+03
0.00000000000e+00
0.00000000000e+00
-1.00000000002e+03
0.00000000000e+00
0.00000000000e+00
-2.23826646106e-08
0.00000000000e+00
0.00000000000e+00
9.99999999979e+02
0.00000000000e+00
0.00000000000e+00
1.99999999998e+03
0.00000000000e+00
0.00000000000e+00
2.99999999998e+03
0.00000000000e+00
0.00000000000e+00
3.99999999998e+03
0.00000000000e+00
0.00000000000e+00
4.99999999998e+03
0.00000000000e+00
0.00000000000e+00
5.99999999999e+03
0.00000000000e+00
0.00000000000e+00
6.99999999999e+03
0.00000000000e+00
0.00000000000e+00
7.99999999999e+03
0.00000000000e+00
0.00000000000e+00
8.99999999999e+03
0.00000000000e+00
0.00000000000e+00
9.99999999999e+03
0.00000000000e+00
0.00000000000e+00
1.10000000000e+04
0.00000000000e+00
0.00000000000e+00
1.20000000000e+04
0.00000000000e+00
0.00000000000e+00
1.30000000000e+04
0.00000000000e+00
0.00000000000e+00
1.40000000000e+04
0.00000000000e+00
0.00000000000e+00
1.60000000000e+04
0.00000000000e+00
0.00000000000e+00
1.70000000000e+04
0.00000000000e+00
0.00000000000e+00
1.80000000000e+04
0.00000000000e+00
0.00000000000e+00
1.90000000000e+04
0.00000000000e+00
0.00000000000e+00
2.10000000000e+04
0.00000000000e+00
0.00000000000e+00
2.20000000000e+04
0.00000000000e+00
0.00000000000e+00
2.30000000000e+04
0.00000000000e+00
0.00000000000e+00
2.40000000000e+04
0.00000000000e+00
0.00000000000e+00
2.50000000000e+04
0.00000000000e+00
0.00000000000e+00
2.60000000000e+04
0.00000000000e+00
0.00000000000e+00
2.70000000000e+04
0.00000000000e+00
0.00000000000e+00
2.80000000000e+04
0.00000000000e+00
0.00000000000e+00
2.90000000000e+04
0.00000000000e+00
0.00000000000e+00
-5.90000000000e+04
0.00000000000e+00
0.00000000000e+00
-5.80000000000e+04
0.00000000000e+00
0.00000000000e+00
-5.70000000000e+04
0.00000000000e+00
0.00000000000e+00
-5.60000000000e+04
0.00000000000e+00
0.00000000000e+00
-5.50000000000e+04
0.00000000000e+00
0.00000000000e+00
-5.40000000000e+04
0.00000000000e+00
0.00000000000e+00
-5.30000000000e+04
0.00000000000e+00
0.00000000000e+00
-5.20000000000e+04
0.00000000000e+00
0.00000000000e+00
-5.10000000000e+04
0.00000000000e+00
0.00000000000e+00
-5.00000000000e+04
0.00000000000e+00
0.00000000000e+00
-4.90000000000e+04
0.00000000000e+00
0.00000000000e+00
-4.80000000000e+04
0.00000000000e+00
0.00000000000e+00
-4.70000000000e+04
0.00000000000e+00
0.00000000000e+00
-4.60000000000e+04
0.00000000000e+00
0.00000000000e+00
-4.50000000000e+04
0.00000000000e+00
0.00000000000e+00
-4.40000000000e+04
0.00000000000e+00
0.00000000000e+00
-4.30000000000e+04
0.00000000000e+00
0.00000000000e+00
-4.20000000000e+04
0.00000000000e+00
0.00000000000e+00
-4.10000000000e+04
0.00000000000e+00
0.00000000000e+00
-4.00000000000e+04
0.00000000000e+00
0.00000000000e+00
-3.90000000000e+04
0.00000000000e+00
0.00000000000e+00
-3.80000000000e+04
0.00000000000e+00
0.00000000000e+00
-3.70000000000e+04
0.00000000000e+00
0.00000000000e+00
-3.60000000000e+04
0.00000000000e+00
0.00000000000e+00
-3.50000000000e+04
0.00000000000e+00
0.00000000000e+00
-3.40000000000e+04
0.00000000000e+00
0.00000000000e+00
-3.30000000000e+04
0.00000000000e+00
0.00000000000e+00
-3.20000000000e+04
0.00000000000e+00
0.00000000000e+00
-3.10000000000e+04
0.00000000000e+00
0.00000000000e+00
3.10000000000e+04
0.00000000000e+00
0.00000000000e+00
3.20000000000e+04
0.00000000000e+00
0.00000000000e+00
3.30000000000e+04
0.00000000000e+00
0.00000000000e+00
3.40000000000e+04
0.00000000000e+00
0.00000000000e+00
3.50000000000e+04
0.00000000000e+00
0.00000000000e+00
3.60000000000e+04
0.00000000000e+00
0.00000000000e+00
3.70000000000e+04
0.00000000000e+00
0.00000000000e+00
3.80000000000e+04
0.00000000000e+00
0.00000000000e+00
3.90000000000e+04
0.00000000000e+00
0.00000000000e+00
4.00000000000e+04
0.00000000000e+00
0.00000000000e+00
4.10000000000e+04
0.00000000000e+00
0.00000000000e+00
4.20000000000e+04
0.00000000000e+00
0.00000000000e+00
4.30000000000e+04
0.00000000000e+00
0.00000000000e+00
4.40000000000e+04
0.00000000000e+00
0.00000000000e+00
4.50000000000e+04
0.00000000000e+00
0.00000000000e+00
4.60000000000e+04
0.00000000000e+00
0.00000000000e+00
4.70000000000e+04
0.00000000000e+00
0.00000000000e+00
4.80000000000e+04
0.00000000000e+00
0.00000000000e+00
4.90000000000e+04
0.00000000000e+00
0.00000000000e+00
5.00000000000e+04
0.00000000000e+00
0.00000000000e+00
5.10000000000e+04
0.00000000000e+00
0.00000000000e+00
5.20000000000e+04
0.00000000000e+00
0.00000000000e+00
5.30000000000e+04
0.00000000000e+00
0.00000000000e+00
5.40000000000e+04
0.00000000000e+00
0.00000000000e+00
5.50000000000e+04
0.00000000000e+00
0.00000000000e+00
5.60000000000e+04
0.00000000000e+00
0.00000000000e+00
5.70000000000e+04
0.00000000000e+00
0.00000000000e+00
5.80000000000e+04
0.00000000000e+00
0.00000000000e+00
5.90000000000e+04
0.00000000000e+00

</DataArray>
</Points>
<Cells>
<DataArray type="Int64" Name="connectivity" format="ascii">
1
10
10
11
11
12
12
13
13
14
14
15
15
16
16
2
2
17
17
18
18
19
19
20
20
21
21
22
22
23
23
24
24
25
25
26
26
27
27
28
28
29
29
30
30
31
31
32
32
33
33
34
34
35
35
36
36
37
37
38
38
39
39
40
40
41
41
42
42
43
43
44
44
45
45
46
46
47
47
48
48
49
49
50
50
51
51
52
52
53
53
54
54
55
55
56
56
57
57
58
58
59
59
60
60
61
61
62
62
63
63
64
64
65
65
66
66
67
67
68
68
69
69
70
70
71
71
72
72
73
73
74
74
75
75
76
76
77
77
78
78
79
79
80
80
81
81
82
82
83
83
84
84
85
85
86
86
87
87
88
88
89
89
90
90
91
91
92
92
93
93
94
94
95
95
96
96
97
97
98
98
99
99
100
100
101
101
102
102
103
103
104
104
105
105
106
106
107
107
108
108
109
109
110
110
111
111
112
112
113
113
114
114
115
115
116
116
117
117
118
118
119
119
120
120
121
121
122
122
123
123
124
124
125
125
126
126
127
127
128
128
129
129
130
130
131
131
132
132
133
133
134
134
135
135
3
3
136
136
137
137
138
138
139
139
140
140
141
141
142
142
0
9
143
143
144
144
145
145
146
146
147
147
148
148
149
149
150
150
151
151
7
7
152
152
153
153
154
154
155
155
5
5
156
156
157
157
158
158
159
159
160
160
161
161
162
162
163
163
164
164
165
165
166
166
167
167
168
168
169
169
170
170
171
171
172
172
173
173
174
174
175
175
176
176
177
177
178
178
179
179
180
180
181
181
182
182
183
183
184
184
4
4
185
185
186
186
187
187
188
188
6
6
189
189
190
190
191
191
192
192
193
193
194
194
195
195
196
196
197
197
8
0
198
198
199
199
200
200
201
201
202
202
203
203
204
204
205
205
206
206
207
207
208
208
209
209
210
210
211
211
212
212
213
213
214
214
215
215
216
216
217
217
218
218
219
219
220
220
221
221
222
222
223
223
224
224
225
225
226
226
9
8
227
227
228
228
229
229
230
230
231
231
232
232
233
233
234
234
235
235
236
236
237
237
238
238
239
239
240
240
241
241
242
242
243
243
244
244
245
245
246
246
247
247
248
248
249
249
250
250
251
251
252
252
253
253
254
254
255
255
1

</DataArray>
<DataArray type="Int64" Name="offsets" format="ascii">
2
4
6
8
10
12
14
16
18
20
22
24
26
28
30
32
34
36
38
40
42
44
46
48
50
52
54
56
58
60
62
64
66
68
70
72
74
76
78
80
82
84
86
88
90
92
94
96
98
100
102
104
106
108
110
112
114
116
118
120
122
124
126
128
130
132
134
136
138
140
142
144
146
148
150
152
154
156
158
160
162
164
166
168
170
172
174
176
178
180
182
184
186
188
190
192
194
196
198
200
202
204
206
208
210
212
214
216
218
220
222
224
226
228
230
232
234
236
238
240
242
244
246
248
250
252
254
256
258
260
262
264
266
268
270
272
274
276
278
280
282
284
286
288
290
292
294
296
298
300
302
304
306
308
310
312
314
316
318
320
322
324
326
328
330
332
334
336
338
340
342
344
346
348
350
352
354
356
358
360
362
364
366
368
370
372
374
376
378
380
382
384
386
388
390
392
394
396
398
400
402
404
406
408
410
412
414
416
418
420
422
424
426
428
430
432
434
436
438
440
442
444
446
448
450
452
454
456
458
460
462
464
466
468
470
472
474
476
478
480
482
484
486
488
490
492
494
496
498
500
502
504
506
508
510
512

</DataArray>
<DataArray type="Int64" Name="types" format="ascii">
3
3
3
3
3
3
3
3
3
3
3
3
3
3
3
3
3
3
3
3
3
3
3
3
3
3
3
3
3
3
3
3
3
3
3
3
3
3
3
3
3
3
3
3
3
3
3
3
3
3
3
3
3
3
3
3
3
3
3
3
3
3
3
3
3
3
3
3
3
3
3
3
3
3
3
3
3
3
3
3
3
3
3
3
3
3
3
3
3
3
3
3
3
3
3
3
3
3
3
3
3
3
3
3
3
3
3
3
3
3
3
3
3
3
3
3
3
3
3
3
3
3
3
3
3
3
3
3
3
3
3
3
3
3
3
3
3
3
3
3
3
3
3
3
3
3
3
3
3
3
3
3
3
3
3
3
3
3
3
3
3
3
3
3
3
3
3
3
3
3
3
3
3
3
3
3
3
3
3
3
3
3
3
3
3
3
3
3
3
3
3
3
3
3
3
3
3
3
3
3
3
3
3
3
3
3
3
3
3
3
3
3
3
3
3
3
3
3
3
3
3
3
3
3
3
3
3
3
3
3
3
3
3
3
3
3
3
3
3
3
3
3
3
3
3
3
3
3
3
3
3
3
3
3
3
3

</DataArray>
</Cells>
<PointData>
<DataArray type="Int64" Name="gmsh:dim_tags" NumberOfComponents="2" format="ascii">
0
1
0
2
0
3
0
4
0
8
0
9
0
10
0
11
0
12
0
13
1
2
1
2
1
2
1
2
1
2
1
2
1
2
1
3
1
3
1
3
1
3
1
3
1
3
1
3
1
3
1
3
1
3
1
3
1
3
1
3
1
3
1
3
1
3
1
3
1
3
1
3
1
3
1
3
1
3
1
3
1
3
1
3
1
3
1
3
1
3
1
3
1
3
1
3
1
3
1
3
1
3
1
3
1
3
1
3
1
3
1
3
1
3
1
3
1
3
1
3
1
3
1
3
1
3
1
3
1
3
1
3
1
3
1
3
1
3
1
3
1
3
1
3
1
3
1
3
1
3
1
3
1
3
1
3
1
3
1
3
1
3
1
3
1
3
1
3
1
3
1
3
1
3
1
3
1
3
1
3
1
3
1
3
1
3
1
3
1
3
1
3
1
3
1
3
1
3
1
3
1
3
1
3
1
3
1
3
1
3
1
3
1
3
1
3
1
3
1
3
1
3
1
3
1
3
1
3
1
3
1
3
1
3
1
3
1
3
1
3
1
3
1
3
1
3
1
3
1
3
1
3
1
3
1
3
1
3
1
3
1
3
1
3
1
3
1
3
1
3
1
3
1
4
1
4
1
4
1
4
1
4
1
4
1
4
1
5
1
5
1
5
1
5
1
5
1
5
1
5
1
5
1
5
1
6
1
6
1
6
1
6
1
7
1
7
1
7
1
7
1
7
1
7
1
7
1
7
1
7
1
7
1
7
1
7
1
7
1
7
1
7
1
7
1
7
1
7
1
7
1
7
1
7
1
7
1
7
1
7
1
7
1
7
1
7
1
7
1
7
1
8
1
8
1
8
1
8
1
9
1
9
1
9
1
9
1
9
1
9
1
9
1
9
1
9
1
10
1
10
1
10
1
10
1
10
1
10
1
10
1
10
1
10
1
10
1
10
1
10
1
10
1
10
1
10
1
10
1
10
1
10
1
10
1
10
1
10
1
10
1
10
1
10
1
10
1
10
1
10
1
10
1
10
1
14
1
14
1
14
1
14
1
14
1
14
1
14
1
14
1
14
1
14
1
14
1
14
1
14
1
14
1
14
1
14
1
14
1
14
1
14
1
14
1
14
1
14
1
14
1
14
1
14
1
14
1
14
1
14
1
14

</DataArray>
</PointData>
<CellData>
<DataArray type="Int64" Name="gmsh:physical" format="ascii">
1
1
1
1
1
1
1
1
2
2
2
2
2
2
2
2
2
2
2
2
2
2
2
2
2
2
2
2
2
2
2
2
2
2
2
2
2
2
2
2
2
2
2
2
2
2
2
2
2
2
2
2
2
2
2
2
2
2
2
2
2
2
2
2
2
2
2
2
2
2
2
2
2
2
2
2
2
2
2
2
2
2
2
2
2
2
2
2
2
2
2
2
2
2
2
2
2
2
2
2
2
2
2
2
2
2
2
2
2
2
2
2
2
2
2
2
2
2
2
2
2
2
2
2
2
2
2
2
3
3
3
3
3
3
3
3
4
4
4
4
4
4
4
4
4
4
4
4
4
4
4
4
4
4
4
4
4
4
4
4
4
4
4
4
4
4
4
4
4
4
4
4
4
4
4
4
4
4
4
4
4
4
4
4
4
4
4
4
4
4
4
4
4
4
4
4
4
4
4
4
4
4
4
4
4
4
4
4
4
4
4
4
4
4
4
4
4
4
4
4
4
4
4
4
4
4
4
4
4
4
4
4
4
4
4
4
4
4
4
4
4
4
4
4
4
4
4
4
4
4
4
4
4
4
4
4

</DataArray>
</CellData>
</Piece>
</UnstructuredGrid>
</VTKFile>
