<?xml version="1.0"?>
<VTKFile type="UnstructuredGrid" version="0.1" byte_order="LittleEndian">
<!--This file was created by meshio v5.3.5-->
<UnstructuredGrid>
<Piece NumberOfPoints="115" NumberOfCells="146">
<Points>
<DataArray type="Float64" Name="Points" NumberOfComponents="3" format="ascii">
0.00000000000e+00
1.50000000000e+04
0.00000000000e+00
0.00000000000e+00
-1.50000000000e+04
0.00000000000e+00
0.00000000000e+00
2.00000000000e+04
0.00000000000e+00
0.00000000000e+00
-2.00000000000e+04
0.00000000000e+00
0.00000000000e+00
-1.90000000000e+04
0.00000000000e+00
0.00000000000e+00
-1.80000000000e+04
0.00000000000e+00
0.00000000000e+00
-1.70000000000e+04
0.00000000000e+00
0.00000000000e+00
-1.60000000000e+04
0.00000000000e+00
0.00000000000e+00
1.60000000000e+04
0.00000000000e+00
0.00000000000e+00
1.70000000000e+04
0.00000000000e+00
0.00000000000e+00
1.80000000000e+04
0.00000000000e+00
0.00000000000e+00
1.90000000000e+04
0.00000000000e+00
-8.55146559435e+01
-1.40322338520e+04
0.00000000000e+00
-1.79344031307e+02
-1.30652369813e+04
0.00000000000e+00
-2.79475810872e+02
-1.20988712859e+04
0.00000000000e+00
-3.83913355568e+02
-1.11329606941e+04
0.00000000000e+00
-4.90671720353e+02
-1.01673034598e+04
0.00000000000e+00
-5.97772592522e+02
-9.20168408947e+03
0.00000000000e+00
-7.03238656389e+02
-8.23588507707e+03
0.00000000000e+00
-8.05087877346e+02
-7.26969858022e+03
0.00000000000e+00
-9.01328185783e+02
-6.30293825583e+03
0.00000000000e+00
-9.89953060144e+02
-5.33545142360e+03
0.00000000000e+00
-1.06893854233e+03
-4.36713165648e+03
0.00000000000e+00
-1.13624224947e+03
-3.39793197351e+03
0.00000000000e+00
-1.18980502491e+03
-2.42787826940e+03
0.00000000000e+00
-1.22755583558e+03
-1.45708346235e+03
0.00000000000e+00
-1.24742063081e+03
-4.85761222738e+02
0.00000000000e+00
-1.24742062995e+03
4.85761303896e+02
0.00000000000e+00
-1.22755583332e+03
1.45708353771e+03
0.00000000000e+00
-1.18980502161e+03
2.42787833896e+03
0.00000000000e+00
-1.13624224571e+03
3.39793203346e+03
0.00000000000e+00
-1.06893853786e+03
4.36713171529e+03
0.00000000000e+00
-9.89953055495e+02
5.33545147707e+03
0.00000000000e+00
-9.01328181113e+02
6.30293830451e+03
0.00000000000e+00
-8.05087872911e+02
7.26969862336e+03
0.00000000000e+00
-7.03238652307e+02
8.23588511499e+03
0.00000000000e+00
-5.97772588988e+02
9.20168412148e+03
0.00000000000e+00
-4.90671717397e+02
1.01673034864e+04
0.00000000000e+00
-3.83913353285e+02
1.11329607149e+04
0.00000000000e+00
-2.79475809236e+02
1.20988713013e+04
0.00000000000e+00
-1.79344030325e+02
1.30652369910e+04
0.00000000000e+00
-8.55146554557e+01
1.40322338572e+04
0.00000000000e+00
-1.27647002217e+02
-1.90241178383e+04
0.00000000000e+00
-2.65258356715e+02
-1.80495893331e+04
0.00000000000e+00
-4.11084599325e+02
-1.70762549464e+04
0.00000000000e+00
-5.63401096676e+02
-1.61039140581e+04
0.00000000000e+00
-7.20504467003e+02
-1.51323344478e+04
0.00000000000e+00
-8.80707966206e+02
-1.41612607364e+04
0.00000000000e+00
-1.04233601077e+03
-1.31904229072e+04
0.00000000000e+00
-1.20371826031e+03
-1.22195442240e+04
0.00000000000e+00
-1.36318346413e+03
-1.12483491128e+04
0.00000000000e+00
-1.51905335201e+03
-1.02765710272e+04
0.00000000000e+00
-1.66963682138e+03
-9.30396050163e+03
0.00000000000e+00
-1.81322467331e+03
-8.33029369565e+03
0.00000000000e+00
-1.94808527029e+03
-7.35538111197e+03
0.00000000000e+00
-2.07246136763e+03
-6.37907717133e+03
0.00000000000e+00
-2.18456858371e+03
-5.40129017914e+03
0.00000000000e+00
-2.28259580937e+03
-4.42199393236e+03
0.00000000000e+00
-2.36470841790e+03
-3.44123738946e+03
0.00000000000e+00
-2.42905416919e+03
-2.45915794805e+03
0.00000000000e+00
-2.47377293617e+03
-1.47599231170e+03
0.00000000000e+00
-2.49701035609e+03
-4.92087894440e+02
0.00000000000e+00
-2.49701035480e+03
4.92088001135e+02
0.00000000000e+00
-2.47377293266e+03
1.47599241240e+03
0.00000000000e+00
-2.42905416390e+03
2.45915804287e+03
0.00000000000e+00
-2.36470841120e+03
3.44123747899e+03
0.00000000000e+00
-2.28259580168e+03
4.42199401573e+03
0.00000000000e+00
-2.18456857533e+03
5.40129025694e+03
0.00000000000e+00
-2.07246135886e+03
6.37907724367e+03
0.00000000000e+00
-1.94808526138e+03
7.35538117888e+03
0.00000000000e+00
-1.81322466451e+03
8.33029375705e+03
0.00000000000e+00
-1.66963681285e+03
9.30396055792e+03
0.00000000000e+00
-1.51905334382e+03
1.02765710790e+04
0.00000000000e+00
-1.36318345652e+03
1.12483491596e+04
0.00000000000e+00
-1.20371825350e+03
1.22195442652e+04
0.00000000000e+00
-1.04233600477e+03
1.31904229433e+04
0.00000000000e+00
-8.80707961039e+02
1.41612607675e+04
0.00000000000e+00
-7.20504462705e+02
1.51323344741e+04
0.00000000000e+00
-5.63401093545e+02
1.61039140778e+04
0.00000000000e+00
-4.11084596891e+02
1.70762549622e+04
0.00000000000e+00
-2.65258355261e+02
1.80495893431e+04
0.00000000000e+00
-1.27647001510e+02
1.90241178435e+04
0.00000000000e+00
-3.44905969632e+02
-1.55664387421e+04
0.00000000000e+00
-3.44905974886e+02
1.55664387605e+04
0.00000000000e+00
-1.86953436184e+03
4.35692329119e-05
0.00000000000e+00
-1.85798423551e+03
9.84112367044e+02
0.00000000000e+00
-1.85798422845e+03
-9.84112287631e+02
0.00000000000e+00
-4.29190672130e+02
-1.45835037684e+04
0.00000000000e+00
-4.29190673895e+02
1.45835037886e+04
0.00000000000e+00
-1.82147472479e+03
1.96631036357e+03
0.00000000000e+00
-1.82147471912e+03
-1.96631028998e+03
0.00000000000e+00
-1.76869509036e+03
2.94360601341e+03
0.00000000000e+00
-1.76869508595e+03
-2.94360594522e+03
0.00000000000e+00
-1.70020740569e+03
3.91943499549e+03
0.00000000000e+00
-1.70020740404e+03
-3.91943493176e+03
0.00000000000e+00
-1.61707470169e+03
4.89425372329e+03
0.00000000000e+00
-1.61707470063e+03
-4.89425366330e+03
0.00000000000e+00
-1.52183391523e+03
5.86704714306e+03
0.00000000000e+00
-1.52183391437e+03
-5.86704708814e+03
0.00000000000e+00
-5.51323753426e+02
-1.36114520066e+04
0.00000000000e+00
-5.51323754188e+02
1.36114520316e+04
0.00000000000e+00
-1.41648473726e+03
6.83784561749e+03
0.00000000000e+00
-1.41648473612e+03
-6.83784556776e+03
0.00000000000e+00
-1.30298306895e+03
7.80680347440e+03
0.00000000000e+00
-1.30298306731e+03
-7.80680343006e+03
0.00000000000e+00
-6.82793339870e+02
-1.26318066368e+04
0.00000000000e+00
-6.82793349233e+02
1.26318066780e+04
0.00000000000e+00
-1.17915371986e+03
8.77651343503e+03
0.00000000000e+00
-1.17915371412e+03
-8.77651339897e+03
0.00000000000e+00
-1.05593649149e+03
9.74125017570e+03
0.00000000000e+00
-1.05593648409e+03
-9.74125014520e+03
0.00000000000e+00
-8.05837976993e+02
1.16671820078e+04
0.00000000000e+00
-8.05837966000e+02
-1.16671819883e+04
0.00000000000e+00
-9.34826180522e+02
1.07053428277e+04
0.00000000000e+00
-9.34826178181e+02
-1.07053427972e+04
0.00000000000e+00

</DataArray>
</Points>
<Cells>
<DataArray type="Int64" Name="connectivity" format="ascii">
77
76
88
47
46
87
1
12
87
41
0
88
76
75
100
48
47
99
12
13
99
40
41
100
77
0
83
1
46
82
49
48
105
75
74
106
45
7
82
8
78
83
13
14
105
39
40
106
76
41
88
12
47
87
86
60
90
63
85
89
84
61
86
62
84
85
84
27
85
26
84
86
90
59
92
64
89
91
92
58
94
65
91
93
60
59
90
64
63
89
59
58
92
65
64
91
61
60
86
63
62
85
85
28
89
25
86
90
58
57
94
66
65
93
26
27
84
94
57
96
66
93
95
62
61
84
57
56
96
67
66
95
50
49
112
74
73
111
89
29
91
24
90
92
27
28
85
25
26
86
56
55
98
68
67
97
96
56
98
67
95
97
28
29
89
24
25
90
91
30
93
23
92
94
46
1
87
0
77
88
29
30
91
23
24
92
55
54
102
69
68
101
14
15
112
38
39
111
98
55
102
68
97
101
93
31
95
22
94
96
30
31
93
22
23
94
75
40
100
13
48
99
54
53
104
70
69
103
95
32
97
21
96
98
31
32
95
21
22
96
102
54
104
69
101
103
32
33
97
20
21
98
53
52
108
71
70
107
97
33
101
20
98
102
74
39
106
14
49
105
33
34
101
19
20
102
104
53
108
70
103
107
101
34
103
19
102
104
47
12
99
41
76
100
52
51
110
72
71
109
34
35
103
18
19
104
112
15
114
38
111
113
51
50
114
73
72
113
103
35
107
18
104
108
35
36
107
17
18
108
108
52
110
71
107
109
36
37
109
16
17
110
107
36
109
17
108
110
50
112
114
111
73
113
37
38
113
15
16
114
48
13
105
40
75
106
109
37
113
16
110
114
110
51
114
72
109
113
39
74
111
49
14
112
0
8
83
7
1
82
81
11
2
42
3
4
46
45
82
78
77
83
43
4
5
43
42
4
44
5
6
44
43
5
45
6
7
45
44
6
78
8
9
79
9
10
78
9
79
80
10
11
79
10
80
80
11
81

</DataArray>
<DataArray type="Int64" Name="offsets" format="ascii">
3
6
9
12
15
18
21
24
27
30
33
36
39
42
45
48
51
54
57
60
63
66
69
72
75
78
81
84
87
90
93
96
99
102
105
108
111
114
117
120
123
126
129
132
135
138
141
144
147
150
153
156
159
162
165
168
171
174
177
180
183
186
189
192
195
198
201
204
207
210
213
216
219
222
225
228
231
234
237
240
243
246
249
252
255
258
261
264
267
270
273
276
279
282
285
288
291
294
297
300
303
306
309
312
315
318
321
324
327
330
333
336
339
342
345
348
351
354
357
360
363
366
369
372
375
378
381
384
387
390
393
396
399
402
405
408
411
414
417
420
423
426
429
432
435
438

</DataArray>
<DataArray type="Int64" Name="types" format="ascii">
5
5
5
5
5
5
5
5
5
5
5
5
5
5
5
5
5
5
5
5
5
5
5
5
5
5
5
5
5
5
5
5
5
5
5
5
5
5
5
5
5
5
5
5
5
5
5
5
5
5
5
5
5
5
5
5
5
5
5
5
5
5
5
5
5
5
5
5
5
5
5
5
5
5
5
5
5
5
5
5
5
5
5
5
5
5
5
5
5
5
5
5
5
5
5
5
5
5
5
5
5
5
5
5
5
5
5
5
5
5
5
5
5
5
5
5
5
5
5
5
5
5
5
5
5
5
5
5
5
5
5
5
5
5
5
5
5
5
5
5
5
5
5
5
5
5

</DataArray>
</Cells>
<PointData>
<DataArray type="Int64" Name="gmsh:dim_tags" NumberOfComponents="2" format="ascii">
0
8
0
9
0
10
0
11
1
6
1
6
1
6
1
6
1
8
1
8
1
8
1
8
1
11
1
11
1
11
1
11
1
11
1
11
1
11
1
11
1
11
1
11
1
11
1
11
1
11
1
11
1
11
1
11
1
11
1
11
1
11
1
11
1
11
1
11
1
11
1
11
1
11
1
11
1
11
1
11
1
11
1
11
1
12
1
12
1
12
1
12
1
12
1
12
1
12
1
12
1
12
1
12
1
12
1
12
1
12
1
12
1
12
1
12
1
12
1
12
1
12
1
12
1
12
1
12
1
12
1
12
1
12
1
12
1
12
1
12
1
12
1
12
1
12
1
12
1
12
1
12
1
12
1
12
1
12
1
12
1
12
1
12
2
2
2
2
2
2
2
2
2
2
2
2
2
2
2
2
2
2
2
2
2
2
2
2
2
2
2
2
2
2
2
2
2
2
2
2
2
2
2
2
2
2
2
2
2
2
2
2
2
2
2
2
2
2
2
2
2
2
2
2
2
2
2
2
2
2

</DataArray>
</PointData>
<CellData>
<DataArray type="Int64" Name="gmsh:physical" format="ascii">
6
6
6
6
6
6
6
6
6
6
6
6
6
6
6
6
6
6
6
6
6
6
6
6
6
6
6
6
6
6
6
6
6
6
6
6
6
6
6
6
6
6
6
6
6
6
6
6
6
6
6
6
6
6
6
6
6
6
6
6
6
6
6
6
6
6
6
6
6
6
6
6
6
6
6
6
6
6
6
6
6
6
6
6
6
6
6
6
6
6
6
6
6
6
6
6
6
6
6
6
6
6
6
6
6
6
6
6
6
6
6
6
6
6
6
6
6
6
6
6
6
6
6
6
6
6
6
6
6
6
6
6
6
6
6
6
6
6
6
6
6
6
6
6
6
6

</DataArray>
</CellData>
</Piece>
</UnstructuredGrid>
</VTKFile>
