<?xml version="1.0"?>
<VTKFile type="UnstructuredGrid" version="0.1" byte_order="LittleEndian">
<!--This file was created by meshio v5.3.5-->
<UnstructuredGrid>
<Piece NumberOfPoints="9" NumberOfCells="8">
<Points>
<DataArray type="Float64" Name="Points" NumberOfComponents="3" format="ascii">
0.00000000000e+00
-6.00000000000e+04
0.00000000000e+00
-7.50000000000e+03
-6.00000000000e+04
0.00000000000e+00
-6.56250000000e+03
-6.00000000000e+04
0.00000000000e+00
-5.62500000000e+03
-6.00000000000e+04
0.00000000000e+00
-4.68750000000e+03
-6.00000000000e+04
0.00000000000e+00
-3.75000000001e+03
-6.00000000000e+04
0.00000000000e+00
-2.81250000001e+03
-6.00000000000e+04
0.00000000000e+00
-1.87500000000e+03
-6.00000000000e+04
0.00000000000e+00
-9.37500000002e+02
-6.00000000000e+04
0.00000000000e+00

</DataArray>
</Points>
<Cells>
<DataArray type="Int64" Name="connectivity" format="ascii">
1
2
2
3
3
4
4
5
5
6
6
7
7
8
8
0

</DataArray>
<DataArray type="Int64" Name="offsets" format="ascii">
2
4
6
8
10
12
14
16

</DataArray>
<DataArray type="Int64" Name="types" format="ascii">
3
3
3
3
3
3
3
3

</DataArray>
</Cells>
<PointData>
<DataArray type="Int64" Name="gmsh:dim_tags" NumberOfComponents="2" format="ascii">
0
1
0
4
1
4
1
4
1
4
1
4
1
4
1
4
1
4

</DataArray>
</PointData>
<CellData>
<DataArray type="Int64" Name="gmsh:physical" format="ascii">
3
3
3
3
3
3
3
3

</DataArray>
</CellData>
</Piece>
</UnstructuredGrid>
</VTKFile>
